<preamble>

<basis_specs>
===============================================================================
Cr.1                 Z=  24    Mass=  51.996        Charge= 0.17977+309
Lmxo=2 Lmxkb= 2    BasisType=split      Semic=T
L=0  Nsemic=1  Cnfigmx=4
          i=1  nzeta=1  polorb=0  (3s)  (semicore shell)
            splnorm:   0.15000    
               vcte:    40.000    
               rinn:    2.4151    
               qcoe:    0.0000    
               qyuk:    0.0000    
               qwid:   0.10000E-01
                rcs:    2.6835    
            lambdas:    1.0000    
          i=2  nzeta=2  polorb=0  (4s)  (to be polarized non-perturbatively)
            splnorm:   0.15000    
               vcte:    40.000    
               rinn:    6.9949    
               qcoe:    0.0000    
               qyuk:    0.0000    
               qwid:   0.10000E-01
                rcs:    7.7643      5.6750    
            lambdas:    1.0000      1.0000    
L=1  Nsemic=1  Cnfigmx=4
          i=1  nzeta=1  polorb=0  (3p)  (semicore shell)
            splnorm:   0.15000    
               vcte:    40.000    
               rinn:    2.7133    
               qcoe:    0.0000    
               qyuk:    0.0000    
               qwid:   0.10000E-01
                rcs:    3.0148    
            lambdas:    1.0000    
          i=2  nzeta=1  polorb=0  (4p)  (non-perturbative polarization shell)
            splnorm:   0.15000    
               vcte:    40.000    
               rinn:    6.9949    
               qcoe:    0.0000    
               qyuk:    0.0000    
               qwid:    0.0000    
                rcs:    7.7643    
            lambdas:    1.0000    
L=2  Nsemic=0  Cnfigmx=3
          i=1  nzeta=2  polorb=0  (3d)
            splnorm:   0.15000    
               vcte:    40.000    
               rinn:    4.9414    
               qcoe:    0.0000    
               qyuk:    0.0000    
               qwid:   0.10000E-01
                rcs:    5.4904      3.4797    
            lambdas:    1.0000      1.0000    
-------------------------------------------------------------------------------
L=0  Nkbl=2  erefs: 0.17977+309 0.17977+309
L=1  Nkbl=2  erefs: 0.17977+309 0.17977+309
L=2  Nkbl=1  erefs: 0.17977+309
===============================================================================
</basis_specs>

<pseudopotential_header>
 Cr ps rel pcec
 ONCVPSP-3.2018-05-09Hamann's oncvpsp                        
 3s 2.00r r= 1.31/3p 6.00r r= 1.31/3d 5.00r r= 1.72/                    3s:3p:3d:4s:
</pseudopotential_header>
</preamble>
Cr                            # Symbol
Cr.1                          # Label
   24                         # Atomic number
     14.0000000000                             # Valence charge
     51.9960000000        # Mass 
     240.197138117        # Self energy 
   2   7                      # Lmax for basis, no. of nl orbitals 
   2  10 T                    # Lmax for projectors, no. of nl KB projectors, LJ projs?
# PAOs:__________________________
  0  3  1  0  2.000000   #orbital l, n, z, is_polarized, population
 500    0.5377692631784396E-02     2.683468623260413     # npts, delta, cutoff
     0.000000000000000         1.493925593387484    
    0.5377692631784396E-02     1.493951523811513    
    0.1075538526356879E-01     1.494133554083533    
    0.1613307789535319E-01     1.494436762472243    
    0.2151077052713758E-01     1.494860805296589    
    0.2688846315892198E-01     1.495405221222033    
    0.3226615579070637E-01     1.496069420810566    
    0.3764384842249077E-01     1.496852685439718    
    0.4302154105427516E-01     1.497754167482622    
    0.4839923368605956E-01     1.498772890848374    
    0.5377692631784396E-01     1.499907751702284    
    0.5915461894962835E-01     1.501157519316875    
    0.6453231158141275E-01     1.502520837037096    
    0.6991000421319714E-01     1.503996223353345    
    0.7528769684498154E-01     1.505582073079409    
    0.8066538947676594E-01     1.507276658633875    
    0.8604308210855033E-01     1.509078131424107    
    0.9142077474033472E-01     1.510984523332237    
    0.9679846737211911E-01     1.512993748302573    
    0.1021761600039035         1.515103604029996    
    0.1075538526356879         1.517311773748810    
    0.1129315452674723         1.519615828121485    
    0.1183092378992567         1.522013227226737    
    0.1236869305310411         1.524501322646221    
    0.1290646231628255         1.527077359649129    
    0.1344423157946099         1.529738479473865    
    0.1398200084263943         1.532481721705850    
    0.1451977010581787         1.535304026750484    
    0.1505753936899631         1.538202238400113    
    0.1559530863217475         1.541173106493798    
    0.1613307789535319         1.544213289668530    
    0.1667084715853163         1.547319358200458    
    0.1720861642171007         1.550487796934515    
    0.1774638568488850         1.553715008300758    
    0.1828415494806694         1.556997315415574    
    0.1882192421124538         1.560330965265754    
    0.1935969347442382         1.563712131973350    
    0.1989746273760226         1.567136920139017    
    0.2043523200078070         1.570601368261467    
    0.2097300126395914         1.574101452230441    
    0.2151077052713758         1.577633088890543    
    0.2204853979031602         1.581192139673030    
    0.2258630905349446         1.584774414292599    
    0.2312407831667290         1.588375674505988    
    0.2366184757985134         1.591991637929094    
    0.2419961684302978         1.595617981909146    
    0.2473738610620822         1.599250347448346    
    0.2527515536938666         1.602884343175223    
    0.2581292463256510         1.606515549359808    
    0.2635069389574354         1.610139521968599    
    0.2688846315892198         1.613751796755176    
    0.2742623242210042         1.617347893382153    
    0.2796400168527886         1.620923319570055    
    0.2850177094845729         1.624473575268611    
    0.2903954021163573         1.627994156845780    
    0.2957730947481417         1.631480561289788    
    0.3011507873799262         1.634928290419327    
    0.3065284800117106         1.638332855096992    
    0.3119061726434950         1.641689779440884    
    0.3172838652752794         1.644994605029389    
    0.3226615579070637         1.648242895093907    
    0.3280392505388481         1.651430238694359    
    0.3334169431706325         1.654552254872251    
    0.3387946358024169         1.657604596775993    
    0.3441723284342013         1.660582955753217    
    0.3495500210659857         1.663483065404772    
    0.3549277136977701         1.666300705595129    
    0.3603054063295545         1.669031706413890    
    0.3656830989613389         1.671671952083186    
    0.3710607915931233         1.674217384805738    
    0.3764384842249077         1.676664008548410    
    0.3818161768566921         1.679007892756200    
    0.3871938694884764         1.681245175991634    
    0.3925715621202609         1.683372069494600    
    0.3979492547520453         1.685384860657892    
    0.4033269473838297         1.687279916413626    
    0.4087046400156141         1.689053686526051    
    0.4140823326473985         1.690702706786238    
    0.4194600252791829         1.692223602104352    
    0.4248377179109672         1.693613089495385    
    0.4302154105427516         1.694867980954339    
    0.4355931031745360         1.695985186217084    
    0.4409707958063204         1.696961715403255    
    0.4463484884381048         1.697794681537820    
    0.4517261810698892         1.698481302948048    
    0.4571038737016736         1.699018905532961    
    0.4624815663334580         1.699404924902434    
    0.4678592589652424         1.699636908383446    
    0.4732369515970268         1.699712516891178    
    0.4786146442288112         1.699629526662874    
    0.4839923368605956         1.699385830852690    
    0.4893700294923800         1.698979440985927    
    0.4947477221241644         1.698408488271394    
    0.5001254147559487         1.697671224770803    
    0.5055031073877332         1.696766024424456    
    0.5108808000195175         1.695691383932671    
    0.5162584926513020         1.694445923492707    
    0.5216361852830864         1.693028387391176    
    0.5270138779148708         1.691437644452207    
    0.5323915705466552         1.689672688341909    
    0.5377692631784395         1.687732637729902    
    0.5431469558102240         1.685616736308939    
    0.5485246484420083         1.683324352673927    
    0.5539023410737928         1.680854980061908    
    0.5592800337055771         1.678208235954717    
    0.5646577263373616         1.675383861546369    
    0.5700354189691459         1.672381721077438    
    0.5754131116009303         1.669201801038826    
    0.5807908042327147         1.665844209247669    
    0.5861684968644991         1.662309173798221    
    0.5915461894962835         1.658597041890798    
    0.5969238821280679         1.654708278542081    
    0.6023015747598524         1.650643465180171    
    0.6076792673916367         1.646403298128064    
    0.6130569600234211         1.641988586979254    
    0.6184346526552055         1.637400252869446    
    0.6238123452869899         1.632639326648348    
    0.6291900379187743         1.627706946955772    
    0.6345677305505587         1.622604358206287    
    0.6399454231823430         1.617332908486808    
    0.6453231158141275         1.611894047371587    
    0.6507008084459118         1.606289323659117    
    0.6560785010776963         1.600520383035572    
    0.6614561937094806         1.594588965669387    
    0.6668338863412651         1.588496903741675    
    0.6722115789730494         1.582246118917175    
    0.6775892716048338         1.575838626168506    
    0.6829669642366182         1.569276519270201    
    0.6883446568684026         1.562561965068878    
    0.6937223495001871         1.555697216851126    
    0.6991000421319714         1.548684604014048    
    0.7044777347637559         1.541526529277701    
    0.7098554273955402         1.534225465870546    
    0.7152331200273246         1.526783954692367    
    0.7206108126591090         1.519204601459020    
    0.7259885052908934         1.511490073833296    
    0.7313661979226778         1.503643098546081    
    0.7367438905544622         1.495666458511898    
    0.7421215831862465         1.487562989942789    
    0.7474992758180310         1.479335579464363    
    0.7528769684498153         1.470987161237756    
    0.7582546610815998         1.462520714091047    
    0.7636323537133841         1.453939258663596    
    0.7690100463451686         1.445245854566565    
    0.7743877389769529         1.436443597562790    
    0.7797654316087373         1.427535616768976    
    0.7851431242405218         1.418525071883056    
    0.7905208168723061         1.409415150439376    
    0.7958985095040906         1.400209065094228    
    0.8012762021358749         1.390910050944048    
    0.8066538947676594         1.381521362878524    
    0.8120315873994437         1.372046272970559    
    0.8174092800312281         1.362488067905022    
    0.8227869726630125         1.352850046447928    
    0.8281646652947969         1.343135516957609    
    0.8335423579265813         1.333347794939279    
    0.8389200505583657         1.323490200644156    
    0.8442977431901501         1.313566056714325    
    0.8496754358219345         1.303578685874123    
    0.8550531284537188         1.293531408669018    
    0.8604308210855033         1.283427541252415    
    0.8658085137172877         1.273270393221163    
    0.8711862063490721         1.263063265499853    
    0.8765638989808565         1.252809448274518    
    0.8819415916126409         1.242512218975518    
    0.8873192842444253         1.232174840310040    
    0.8926969768762096         1.221800558343778    
    0.8980746695079941         1.211392600632018    
    0.9034523621397784         1.200954174399532    
    0.9088300547715629         1.190488464769289    
    0.9142077474033472         1.179998633039286    
    0.9195854400351317         1.169487815007364    
    0.9249631326669160         1.158959119343158    
    0.9303408252987004         1.148415626006957    
    0.9357185179304848         1.137860384714508    
    0.9410962105622692         1.127296413447518    
    0.9464739031940537         1.116726697008728    
    0.9518515958258380         1.106154185621365    
    0.9572292884576225         1.095581793571746    
    0.9626069810894068         1.085012397894816    
    0.9679846737211912         1.074448837101418    
    0.9733623663529756         1.063893909947034    
    0.9787400589847600         1.053350374240882    
    0.9841177516165444         1.042820945695018    
    0.9894954442483288         1.032308296812526    
    0.9948731368801131         1.021815055814290    
     1.000250829511897         1.011343805603701    
     1.005628522143682         1.000897082768670    
     1.011006214775466        0.9904773766204853    
     1.016383907407251        0.9800871282689275    
     1.021761600039035        0.9697287297332927    
     1.027139292670820        0.9594045230888291    
     1.032516985302604        0.9491167996482254    
     1.037894677934388        0.9388677991778964    
     1.043272370566173        0.9286597091487386    
     1.048650063197957        0.9184946640212243    
     1.054027755829742        0.9083747445646394    
     1.059405448461526        0.8983019772102990    
     1.064783141093310        0.8882783334389392    
     1.070160833725095        0.8783057292018143    
     1.075538526356879        0.8683860243761221    
     1.080916218988663        0.8585210222543617    
     1.086293911620448        0.8487124690680966    
     1.091671604252232        0.8389620535462469    
     1.097049296884017        0.8292714065078176    
     1.102426989515801        0.8196421004900354    
     1.107804682147586        0.8100756494112603    
     1.113182374779370        0.8005735082698835    
     1.118560067411154        0.7911370728790446    
     1.123937760042939        0.7817676796375214    
     1.129315452674723        0.7724666053378521    
     1.134693145306507        0.7632350670109361    
     1.140070837938292        0.7540742218087770    
     1.145448530570076        0.7449851669249780    
     1.150826223201861        0.7359689395535242    
     1.156203915833645        0.7270265168869560    
     1.161581608465429        0.7181588161530786    
     1.166959301097214        0.7093666946919054    
     1.172336993728998        0.7006509500724895    
     1.177714686360783        0.6920123202498522    
     1.183092378992567        0.6834514837633009    
     1.188470071624351        0.6749690599750594    
     1.193847764256136        0.6665656093505661    
     1.199225456887920        0.6582416337804065    
     1.204603149519705        0.6499975769433671    
     1.209980842151489        0.6418338247118665    
     1.215358534783273        0.6337507055988962    
     1.220736227415058        0.6257484912467290    
     1.226113920046842        0.6178273969579245    
     1.231491612678627        0.6099875822674473    
     1.236869305310411        0.6022291515566232    
     1.242246997942195        0.5945521547084252    
     1.247624690573980        0.5869565878031985    
     1.253002383205764        0.5794423938555434    
     1.258380075837549        0.5720094635909281    
     1.263757768469333        0.5646576362407932    
     1.269135461101117        0.5573867002524739    
     1.274513153732902        0.5501963944523732    
     1.279890846364686        0.5430864093773203    
     1.285268538996470        0.5360563886068795    
     1.290646231628255        0.5291059278807700    
     1.296023924260039        0.5222345746763746    
     1.301401616891824        0.5154418297764870    
     1.306779309523608        0.5087271537828544    
     1.312157002155393        0.5020899750779793    
     1.317534694787177        0.4955296984279950    
     1.322912387418961        0.4890457137541155    
     1.328290080050746        0.4826374039332065    
     1.333667772682530        0.4763041497268830    
     1.339045465314314        0.4700453294682817    
     1.344423157946099        0.4638603175933666    
     1.349800850577883        0.4577484834728610    
     1.355178543209668        0.4517091924683421    
     1.360556235841452        0.4457418067483270    
     1.365933928473236        0.4398456859783433    
     1.371311621105021        0.4340201875402235    
     1.376689313736805        0.4282646668783240    
     1.382067006368590        0.4225784778515319    
     1.387444699000374        0.4169609730806343    
     1.392822391632158        0.4114115042776943    
     1.398200084263943        0.4059294225608471    
     1.403577776895727        0.4005140787552503    
     1.408955469527512        0.3951648236808566    
     1.414333162159296        0.3898810084272578    
     1.419710854791080        0.3846619846167609    
     1.425088547422865        0.3795071046553456    
     1.430466240054649        0.3744157219719861    
     1.435843932686434        0.3693871912473983    
     1.441221625318218        0.3644208686319258    
     1.446599317950002        0.3595161119529685    
     1.451977010581787        0.3546722809128848    
     1.457354703213571        0.3498887372772196    
     1.462732395845356        0.3451648450535703    
     1.468110088477140        0.3404999706617773    
     1.473487781108924        0.3358934830955752    
     1.478865473740709        0.3313447540758749    
     1.484243166372493        0.3268531581961148    
     1.489620859004278        0.3224180730601273    
     1.494998551636062        0.3180388794125072    
     1.500376244267846        0.3137149612617666    
     1.505753936899631        0.3094457059969127    
     1.511131629531415        0.3052305044972882    
     1.516509322163200        0.3010687512359914    
     1.521887014794984        0.2969598443773460    
     1.527264707426768        0.2929031858684382    
     1.532642400058553        0.2888981815249478    
     1.538020092690337        0.2849442411115575    
     1.543397785322121        0.2810407784171741    
     1.548775477953906        0.2771872113250680    
     1.554153170585690        0.2733829618781182    
     1.559530863217475        0.2696274563394965    
     1.564908555849259        0.2659201252488166    
     1.570286248481044        0.2622604034739566    
     1.575663941112828        0.2586477302587740    
     1.581041633744612        0.2550815492668435    
     1.586419326376397        0.2515613086213650    
     1.591797019008181        0.2480864609413661    
     1.597174711639965        0.2446564633744548    
     1.602552404271750        0.2412707776261502    
     1.607930096903534        0.2379288699859491    
     1.613307789535319        0.2346302113503016    
     1.618685482167103        0.2313742772425957    
     1.624063174798887        0.2281605478302799    
     1.629440867430672        0.2249885079391789    
     1.634818560062456        0.2218576470653244    
     1.640196252694241        0.2187674593842028    
     1.645573945326025        0.2157174437574859    
     1.650951637957810        0.2127071037375217    
     1.656329330589594        0.2097359475697906    
     1.661707023221378        0.2068034881940112    
     1.667084715853163        0.2039092432391298    
     1.672462408484947        0.2010527350214729    
     1.677840101116731        0.1982334905392746    
     1.683217793748516        0.1954510414661402    
     1.688595486380300        0.1927049241365507    
     1.693973179012085        0.1899946795401280    
     1.699350871643869        0.1873198533061610    
     1.704728564275653        0.1846799956917618    
     1.710106256907438        0.1820746615793868    
     1.715483949539222        0.1795034104451726    
     1.720861642171007        0.1769658063422649    
     1.726239334802791        0.1744614178955288    
     1.731617027434575        0.1719898182814163    
     1.736994720066360        0.1695505851918056    
     1.742372412698144        0.1671433008372921    
     1.747750105329928        0.1647675518563571    
     1.753127797961713        0.1624229293309902    
     1.758505490593497        0.1601090287752076    
     1.763883183225282        0.1578254500895581    
     1.769260875857066        0.1555717975801336    
     1.774638568488851        0.1533476798968768    
     1.780016261120635        0.1511527100074459    
     1.785393953752419        0.1489865051704257    
     1.790771646384204        0.1468486869036206    
     1.796149339015988        0.1447388809557137    
     1.801527031647773        0.1426567172761937    
     1.806904724279557        0.1406018299851292    
     1.812282416911341        0.1385738573421468    
     1.817660109543126        0.1365724417151149    
     1.823037802174910        0.1345972295479068    
     1.828415494806694        0.1326478713273421    
     1.833793187438479        0.1307240215526227    
     1.839170880070263        0.1288253387008276    
     1.844548572702048        0.1269514851943113    
     1.849926265333832        0.1251021273660917    
     1.855303957965617        0.1232769354308650    
     1.860681650597401        0.1214755834470094    
     1.866059343229185        0.1196977492819032    
     1.871437035860970        0.1179431145842172    
     1.876814728492754        0.1162113647291451    
     1.882192421124538        0.1145021887964235    
     1.887570113756323        0.1128152795398823    
     1.892947806388107        0.1111503333382488    
     1.898325499019892        0.1095070501933150    
     1.903703191651676        0.1078851336896452    
     1.909080884283460        0.1062842909304945    
     1.914458576915245        0.1047042325151731    
     1.919836269547029        0.1031446725045549    
     1.925213962178814        0.1016053283868130    
     1.930591654810598        0.1000859210429611    
     1.935969347442382        0.9858617471248067E-01
     1.941347040074167        0.9710581695897443E-01
     1.946724732705951        0.9564457863584976E-01
     1.952102425337735        0.9420219385161405E-01
     1.957480117969520        0.9277839993526259E-01
     1.962857810601304        0.9137293740173849E-01
     1.968235503233089        0.8998554991740496E-01
     1.973613195864873        0.8861598426586048E-01
     1.978990888496658        0.8726399031396544E-01
     1.984368581128442        0.8592932097794663E-01
     1.989746273760226        0.8461173218967752E-01
     1.995123966392011        0.8331098286309539E-01
     2.000501659023795        0.8202683486070232E-01
     2.005879351655580        0.8075905296026371E-01
     2.011257044287364        0.7950740482167427E-01
     2.016634736919148        0.7827166095401104E-01
     2.022012429550933        0.7705159468274711E-01
     2.027390122182717        0.7584698211716506E-01
     2.032767814814501        0.7465760211795523E-01
     2.038145507446286        0.7348323626501582E-01
     2.043523200078070        0.7232366882545094E-01
     2.048900892709855        0.7117868672176164E-01
     2.054278585341639        0.7004807950025581E-01
     2.059656277973423        0.6893163929966051E-01
     2.065033970605208        0.6782916081996945E-01
     2.070411663236992        0.6674044129147863E-01
     2.075789355868777        0.6566528044405733E-01
     2.081167048500561        0.6460348047663945E-01
     2.086544741132346        0.6355484602694142E-01
     2.091922433764130        0.6251918414141579E-01
     2.097300126395914        0.6149630424541089E-01
     2.102677819027698        0.6048601811357922E-01
     2.108055511659483        0.5948813984051082E-01
     2.113433204291268        0.5850248581161438E-01
     2.118810896923052        0.5752887467421624E-01
     2.124188589554836        0.5656712730889987E-01
     2.129566282186621        0.5561706680108545E-01
     2.134943974818405        0.5467851841284260E-01
     2.140321667450189        0.5375130955496277E-01
     2.145699360081974        0.5283526975923591E-01
     2.151077052713758        0.5193023065098850E-01
     2.156454745345543        0.5103602592185549E-01
     2.161832437977327        0.5015249130279243E-01
     2.167210130609111        0.4927946453733919E-01
     2.172587823240896        0.4841678535509787E-01
     2.177965515872680        0.4756429544546834E-01
     2.183343208504465        0.4672183843161525E-01
     2.188720901136249        0.4588925984468316E-01
     2.194098593768033        0.4506640709824705E-01
     2.199476286399818        0.4425312946298596E-01
     2.204853979031602        0.4344927804161047E-01
     2.210231671663387        0.4265470574401433E-01
     2.215609364295171        0.4186926726267769E-01
     2.220987056926955        0.4109281904829278E-01
     2.226364749558740        0.4032521928561764E-01
     2.231742442190524        0.3956632786957366E-01
     2.237120134822308        0.3881600638156577E-01
     2.242497827454093        0.3807411806604843E-01
     2.247875520085878        0.3734052780730462E-01
     2.253253212717662        0.3661510210645393E-01
     2.258630905349446        0.3589770905869358E-01
     2.264008597981230        0.3518821833075760E-01
     2.269386290613015        0.3448650113861539E-01
     2.274763983244799        0.3379243022537615E-01
     2.280141675876584        0.3310587983941606E-01
     2.285519368508368        0.3242672571273018E-01
     2.290897061140153        0.3175484503949740E-01
     2.296274753771937        0.3109011645487385E-01
     2.301652446403721        0.3043242001398741E-01
     2.307030139035505        0.2978163717114565E-01
     2.312407831667290        0.2913765075926207E-01
     2.317785524299075        0.2850034496948479E-01
     2.323163216930859        0.2786960533104495E-01
     2.328540909562643        0.2724531869130310E-01
     2.333918602194428        0.2662737319599483E-01
     2.339296294826212        0.2601565826968723E-01
     2.344673987457996        0.2541006459643211E-01
     2.350051680089781        0.2481048410062243E-01
     2.355429372721565        0.2421680992804924E-01
     2.360807065353350        0.2362893642713870E-01
     2.366184757985134        0.2304675913039550E-01
     2.371562450616918        0.2247017473603413E-01
     2.376940143248703        0.2189908108979818E-01
     2.382317835880487        0.2133337716698023E-01
     2.387695528512272        0.2077296305460589E-01
     2.393073221144056        0.2021773993381591E-01
     2.398450913775840        0.1966761006242817E-01
     2.403828606407625        0.1912247675767546E-01
     2.409206299039409        0.1858224437913553E-01
     2.414583991671194        0.1804681831181867E-01
     2.419961684302978        0.1751610494943867E-01
     2.425339376934762        0.1699001167785640E-01
     2.430717069566547        0.1646844685875917E-01
     2.436094762198331        0.1595131982650413E-01
     2.441472454830115        0.1543854121256563E-01
     2.446850147461900        0.1493002542566993E-01
     2.452227840093685        0.1442569840717637E-01
     2.457605532725469        0.1392551105011248E-01
     2.462983225357253        0.1342945461210760E-01
     2.468360917989037        0.1293757366155045E-01
     2.473738610620822        0.1244997395024609E-01
     2.479116303252606        0.1196682472727829E-01
     2.484493995884391        0.1148835631109465E-01
     2.489871688516175        0.1101485422283409E-01
     2.495249381147960        0.1054665117516624E-01
     2.500627073779744        0.1008411798614209E-01
     2.506004766411528        0.9627654211228720E-02
     2.511382459043313        0.9177679035166614E-02
     2.516760151675097        0.8734622764385079E-02
     2.522137844306882        0.8298919112094292E-02
     2.527515536938666        0.7870998364075805E-02
     2.532893229570450        0.7451281443557238E-02
     2.538270922202235        0.7040174849292026E-02
     2.543648614834019        0.6638066414444733E-02
     2.549026307465803        0.6245321819578375E-02
     2.554404000097588        0.5862281786758159E-02
     2.559781692729372        0.5489259880651545E-02
     2.565159385361157        0.5126540844472133E-02
     2.570537077992941        0.4774379402348612E-02
     2.575914770624725        0.4432999464188500E-02
     2.581292463256510        0.4102593673774338E-02
     2.586670155888294        0.3783323245168082E-02
     2.592047848520079        0.3475318036146374E-02
     2.597425541151863        0.3178676809998175E-02
     2.602803233783647        0.2893467638137894E-02
     2.608180926415432        0.2619728395003669E-02
     2.613558619047216        0.2357467292621338E-02
     2.618936311679001        0.2106663393314061E-02
     2.624314004310785        0.1867267022271261E-02
     2.629691696942569        0.1639199971461159E-02
     2.635069389574354        0.1422355331723034E-02
     2.640447082206138        0.1216596688590522E-02
     2.645824774837922        0.1021756221119848E-02
     2.651202467469707        0.8376308385473118E-03
     2.656580160101492        0.6639745855377744E-03
     2.661957852733276        0.5004832957165855E-03
     2.667335545365060        0.3467609708103504E-03
     2.672713237996845        0.2022342166128123E-03
     2.678090930628629        0.6585227392906395E-04
     2.683468623260413         0.000000000000000    
  0  4  1  0  1.000000   #orbital l, n, z, is_polarized, population
 500    0.1555981902741958E-01     7.764349694682369     # npts, delta, cutoff
     0.000000000000000        0.5627687482380552    
    0.1555981902741958E-01    0.5628310549873409    
    0.3111963805483915E-01    0.5630553970028770    