<preamble>

<basis_specs>
===============================================================================
Cr.1                 Z=  24    Mass=  51.996        Charge= 0.17977+309
Lmxo=2 Lmxkb= 2    BasisType=split      Semic=T
L=0  Nsemic=1  Cnfigmx=4
          i=1  nzeta=1  polorb=0  (3s)  (semicore shell)
            splnorm:   0.15000    
               vcte:    40.000    
               rinn:    2.4151    
               qcoe:    0.0000    
               qyuk:    0.0000    
               qwid:   0.10000E-01
                rcs:    2.6835    
            lambdas:    1.0000    
          i=2  nzeta=2  polorb=0  (4s)  (to be polarized non-perturbatively)
            splnorm:   0.15000    
               vcte:    40.000    
               rinn:    6.9949    
               qcoe:    0.0000    
               qyuk:    0.0000    
               qwid:   0.10000E-01
                rcs:    7.7643      5.6750    
            lambdas:    1.0000      1.0000    
L=1  Nsemic=1  Cnfigmx=4
          i=1  nzeta=1  polorb=0  (3p)  (semicore shell)
            splnorm:   0.15000    
               vcte:    40.000    
               rinn:    2.7133    
               qcoe:    0.0000    
               qyuk:    0.0000    
               qwid:   0.10000E-01
                rcs:    3.0148    
            lambdas:    1.0000    
          i=2  nzeta=1  polorb=0  (4p)  (non-perturbative polarization shell)
            splnorm:   0.15000    
               vcte:    40.000    
               rinn:    6.9949    
               qcoe:    0.0000    
               qyuk:    0.0000    
               qwid:    0.0000    
                rcs:    7.7643    
            lambdas:    1.0000    
L=2  Nsemic=0  Cnfigmx=3
          i=1  nzeta=2  polorb=0  (3d)
            splnorm:   0.15000    
               vcte:    40.000    
               rinn:    4.9365    
               qcoe:    0.0000    
               qyuk:    0.0000    
               qwid:   0.10000E-01
                rcs:    5.4795      3.4763    
            lambdas:    1.0000      1.0000    
-------------------------------------------------------------------------------
L=0  Nkbl=2  erefs: 0.17977+309 0.17977+309
L=1  Nkbl=2  erefs: 0.17977+309 0.17977+309
L=2  Nkbl=1  erefs: 0.17977+309
===============================================================================
</basis_specs>

<pseudopotential_header>
 Cr ps nrl pcec
 ONCVPSP-3.2018-03-01Hamann's oncvpsp                        
 3s 2.00  r= 1.31/3p 6.00  r= 1.31/3d 5.00  r= 1.72/                    3s:3p:3d:4s:
</pseudopotential_header>
</preamble>
Cr                            # Symbol
Cr.1                          # Label
   24                         # Atomic number
     14.0000000000                             # Valence charge
     51.9960000000        # Mass 
     240.211438961        # Self energy 
   2   7                      # Lmax for basis, no. of nl orbitals 
   2   6                      # Lmax for projectors, no. of nl KB projectors
# PAOs:__________________________
  0  3  1  0  2.000000   #orbital l, n, z, is_polarized, population
 500    0.5377692631784396E-02     2.683468623260413     # npts, delta, cutoff
     0.000000000000000         1.495319401200592    
    0.5377692631784396E-02     1.495345185556184    
    0.1075538526356879E-01     1.495526874975825    
    0.1613307789535319E-01     1.495829515449736    
    0.2151077052713758E-01     1.496252763479461    
    0.2688846315892198E-01     1.496796158004256    
    0.3226615579070637E-01     1.497459109941074    
    0.3764384842249077E-01     1.498240901102196    
    0.4302154105427516E-01     1.499140684374990    
    0.4839923368605956E-01     1.500157484262209    
    0.5377692631784396E-01     1.501290197602259    
    0.5915461894962835E-01     1.502537594420243    
    0.6453231158141275E-01     1.503898318893228    
    0.6991000421319714E-01     1.505370890423310    
    0.7528769684498154E-01     1.506953704815595    
    0.8066538947676594E-01     1.508645035559642    
    0.8604308210855033E-01     1.510443035213457    
    0.9142077474033472E-01     1.512345736889452    
    0.9679846737211911E-01     1.514351055841838    
    0.1021761600039035         1.516456791154937    
    0.1075538526356879         1.518660627531930    
    0.1129315452674723         1.520960137183455    
    0.1183092378992567         1.523352781815492    
    0.1236869305310411         1.525835914715817    
    0.1290646231628255         1.528406782938303    
    0.1344423157946099         1.531062529584231    
    0.1398200084263943         1.533800196179692    
    0.1451977010581787         1.536616725148043    
    0.1505753936899631         1.539508962376333    
    0.1559530863217475         1.542473659874429    
    0.1613307789535319         1.545507478525519    
    0.1667084715853163         1.548606990926554    
    0.1720861642171007         1.551768684316991    
    0.1774638568488850         1.554988963594167    
    0.1828415494806694         1.558264154413455    
    0.1882192421124538         1.561590506371196    
    0.1935969347442382         1.564964196268314    
    0.1989746273760226         1.568381331452336    
    0.2043523200078070         1.571837953235415    
    0.2097300126395914         1.575330040385798    
    0.2151077052713758         1.578853512690037    
    0.2204853979031602         1.582404234583095    
    0.2258630905349446         1.585978018843326    
    0.2312407831667290         1.589570630349207    
    0.2366184757985134         1.593177789894485    
    0.2419961684302978         1.596795178058298    
    0.2473738610620822         1.600418439126684    
    0.2527515536938666         1.604043185061732    
    0.2581292463256510         1.607664999514459    
    0.2635069389574354         1.611279441877436    
    0.2688846315892198         1.614882051372974    
    0.2742623242210042         1.618468351172606    
    0.2796400168527886         1.622033852543430    
    0.2850177094845729         1.625574059016809    
    0.2903954021163573         1.629084470574789    
    0.2957730947481417         1.632560587849459    
    0.3011507873799262         1.635997916330459    
    0.3065284800117106         1.639391970575693    
    0.3119061726434950         1.642738278420208    
    0.3172838652752794         1.646032385178201    
    0.3226615579070637         1.649269857833008    
    0.3280392505388481         1.652446289209843    
    0.3334169431706325         1.655557302126122    
    0.3387946358024169         1.658598553514048    
    0.3441723284342013         1.661565738510209    
    0.3495500210659857         1.664454594506886    
    0.3549277136977701         1.667260905159810    
    0.3603054063295545         1.669980504347051    
    0.3656830989613389         1.672609280073841    
    0.3710607915931233         1.675143178318109    
    0.3764384842249077         1.677578206811578    
    0.3818161768566921         1.679910438751343    
    0.3871938694884764         1.682136016436916    
    0.3925715621202609         1.684251154827785    
    0.3979492547520453         1.686252145016762    
    0.4033269473838297         1.688135357614263    
    0.4087046400156141         1.689897246039080    
    0.4140823326473985         1.691534349711094    
    0.4194600252791829         1.693043297141672    
    0.4248377179109672         1.694420808917601    
    0.4302154105427516         1.695663700574560    
    0.4355931031745360         1.696768885356370    
    0.4409707958063204         1.697733376856354    
    0.4463484884381048         1.698554291537478    
    0.4517261810698892         1.699228851127977    
    0.4571038737016736         1.699754384889549    
    0.4624815663334580         1.700128331755295    
    0.4678592589652424         1.700348242334917    
    0.4732369515970268         1.700411780784830    
    0.4786146442288112         1.700316726541136    
    0.4839923368605956         1.700060975913680    
    0.4893700294923800         1.699642543539569    
    0.4947477221241644         1.699059563694907    
    0.5001254147559487         1.698310291463651    
    0.5055031073877332         1.697393103762834    
    0.5108808000195175         1.696306500223603    
    0.5162584926513020         1.695049103927821    
    0.5216361852830864         1.693619662000244    
    0.5270138779148708         1.692017046056512    
    0.5323915705466552         1.690240252507491    
    0.5377692631784395         1.688288402720745    
    0.5431469558102240         1.686160743040157    
    0.5485246484420083         1.683856644664998    
    0.5539023410737928         1.681375603389992    
    0.5592800337055771         1.678717239208103    
    0.5646577263373616         1.675881295778083    
    0.5700354189691459         1.672867639759043    
    0.5754131116009303         1.669676260014434    
    0.5807908042327147         1.666307266688185    
    0.5861684968644991         1.662760890155826    
    0.5915461894962835         1.659037479853698    
    0.5969238821280679         1.655137502989499    
    0.6023015747598524         1.651061543137607    
    0.6076792673916367         1.646810298722799    
    0.6130569600234211         1.642384581396106    
    0.6184346526552055         1.637785314306743    
    0.6238123452869899         1.633013530274135    
    0.6291900379187743         1.628070369864193    
    0.6345677305505587         1.622957079374165    
    0.6399454231823430         1.617675008730361    
    0.6453231158141275         1.612225609303279    
    0.6507008084459118         1.606610431644621    
    0.6560785010776963         1.600831123150786    
    0.6614561937094806         1.594889425657517    
    0.6668338863412651         1.588787172970327    
    0.6722115789730494         1.582526288335443    
    0.6775892716048338         1.576108788338505    
    0.6829669642366182         1.569536768260547    
    0.6883446568684026         1.562812396312613    
    0.6937223495001871         1.555937927190532    
    0.6991000421319714         1.548915691657288    
    0.7044777347637559         1.541748093755315    
    0.7098554273955402         1.534437607991758    
    0.7152331200273246         1.526986776501203    
    0.7206108126591090         1.519398206190203    
    0.7259885052908934         1.511674565867933    
    0.7313661979226778         1.503818583367112    
    0.7367438905544622         1.495833042659295    
    0.7421215831862465         1.487720780968512    
    0.7474992758180310         1.479484685887065    
    0.7528769684498153         1.471127692497248    
    0.7582546610815998         1.462652780502497    
    0.7636323537133841         1.454062971371493    
    0.7690100463451686         1.445361325498457    
    0.7743877389769529         1.436550939382780    
    0.7797654316087373         1.427634942831027    
    0.7851431242405218         1.418616496184082    
    0.7905208168723061         1.409498787572163    
    0.7958985095040906         1.400285030200197    
    0.8012762021358749         1.390978459665882    
    0.8066538947676594         1.381582331312683    
    0.8120315873994437         1.372099917619711    
    0.8174092800312281         1.362534505630419    
    0.8227869726630125         1.352889394421743    
    0.8281646652947969         1.343167892615299    
    0.8335423579265813         1.333373315931970    
    0.8389200505583657         1.323508984791110    
    0.8442977431901501         1.313578221955503    
    0.8496754358219345         1.303584350222905    
    0.8550531284537188         1.293530690165099    
    0.8604308210855033         1.283420557914918    
    0.8658085137172877         1.273257263002017    
    0.8711862063490721         1.263044106237464    
    0.8765638989808565         1.252784377647776    
    0.8819415916126409         1.242481354458185    
    0.8873192842444253         1.232138299125553    
    0.8926969768762096         1.221758457420511    
    0.8980746695079941         1.211345056559038    
    0.9034523621397784         1.200901303382878    
    0.9088300547715629         1.190430382588841    
    0.9142077474033472         1.179935455006234    
    0.9195854400351317         1.169419655922332    
    0.9249631326669160         1.158886093455007    
    0.9303408252987004         1.148337846972315    
    0.9357185179304848         1.137777965558042    
    0.9410962105622692         1.127209466523009    
    0.9464739031940537         1.116635333960962    
    0.9518515958258380         1.106058517348878    
    0.9572292884576225         1.095481930190437    
    0.9626069810894068         1.084908448702484    
    0.9679846737211912         1.074340910543238    
    0.9733623663529756         1.063782113581997    
    0.9787400589847600         1.053234814709218    
    0.9841177516165444         1.042701728686634    
    0.9894954442483288         1.032185527036471    
    0.9948731368801131         1.021688836969276    
     1.000250829511897         1.011214240349695    
     1.005628522143682         1.000764272699581    
     1.011006214775466        0.9903414222379551    
     1.016383907407251        0.9799481289572165    
     1.021761600039035        0.9695867837353132    
     1.027139292670820        0.9592597274833072    
     1.032516985302604        0.9489692503280167    
     1.037894677934388        0.9387175908294575    
     1.043272370566173        0.9285069352327621    
     1.048650063197957        0.9183394167544279    
     1.054027755829742        0.9082171149027237    
     1.059405448461526        0.8981420548320784    
     1.064783141093310        0.8881162067316409    
     1.070160833725095        0.8781414852475437    
     1.075538526356879        0.8682197489394896    
     1.080916218988663        0.8583527997712669    
     1.086293911620448        0.8485423826356675    
     1.091671604252232        0.8387901849139242    
     1.097049296884017        0.8290978360695745    
     1.102426989515801        0.8194669072777268    
     1.107804682147586        0.8098989110890858    
     1.113182374779370        0.8003953011299559    
     1.118560067411154        0.7909574718380501    
     1.123937760042939        0.7815867582344543    
     1.129315452674723        0.7722844357328107    
     1.134693145306507        0.7630517199849645    
     1.140070837938292        0.7538897667647325    
     1.145448530570076        0.7447996718894078    
     1.150826223201861        0.7357824711795310    
     1.156203915833645        0.7268391404580322    
     1.161581608465429        0.7179705955878893    
     1.166959301097214        0.7091776925499951    
     1.172336993728998        0.7004612275608936    
     1.177714686360783        0.6918219372305882    
     1.183092378992567        0.6832604987617141    
     1.188470071624351        0.6747775301890007    
     1.193847764256136        0.6663735906603732    
     1.199225456887920        0.6580491807596653    
     1.204603149519705        0.6498047428704261    
     1.209980842151489        0.6416406615820751    
     1.215358534783273        0.6335572641375415    
     1.220736227415058        0.6255548209226423    
     1.226113920046842        0.6176335459977289    
     1.231491612678627        0.6097935976704162    
     1.236869305310411        0.6020350791101232    
     1.242246997942195        0.5943580390039085    
     1.247624690573980        0.5867624722527213    
     1.253002383205764        0.5792483207087773    
     1.258380075837549        0.5718154739526325    
     1.263757768469333        0.5644637700887213    
     1.269135461101117        0.5571929964556823    
     1.274513153732902        0.5500028907898954    
     1.279890846364686        0.5428931425571669    
     1.285268538996470        0.5358633942853217    
     1.290646231628255        0.5289132406819725    
     1.296023924260039        0.5220422282123485    
     1.301401616891824        0.5152498566672744    
     1.306779309523608        0.5085355856766230    
     1.312157002155393        0.5018988426708495    
     1.317534694787177        0.4953390314834426    
     1.322912387418961        0.4888555411217042    
     1.328290080050746        0.4824477535666248    
     1.333667772682530        0.4761150487013711    
     1.339045465314314        0.4698568039979766    
     1.344423157946099        0.4636723930486095    
     1.349800850577883        0.4575611843974783    
     1.355178543209668        0.4515225425966328    
     1.360556235841452        0.4455558290217910    
     1.365933928473236        0.4396604025621558    
     1.371311621105021        0.4338356198395028    
     1.376689313736805        0.4280808355541845    
     1.382067006368590        0.4223954028369141    
     1.387444699000374        0.4167786735959113    
     1.392822391632158        0.4112299988460525    
     1.398200084263943        0.4057487290234433    
     1.403577776895727        0.4003342142861442    
     1.408955469527512        0.3949858048017200    
     1.414333162159296        0.3897028510218602    
     1.419710854791080        0.3844847039452319    
     1.425088547422865        0.3793307153682137    
     1.430466240054649        0.3742402381239967    
     1.435843932686434        0.3692126263111093    
     1.441221625318218        0.3642472355110862    
     1.446599317950002        0.3593434229956765    
     1.451977010581787        0.3545005479245300    
     1.457354703213571        0.3497179715332089    
     1.462732395845356        0.3449950573118393    
     1.468110088477140        0.3403311711750896    
     1.473487781108924        0.3357256816236099    
     1.478865473740709        0.3311779598971054    
     1.484243166372493        0.3266873801194801    
     1.489620859004278        0.3222533194364973    
     1.494998551636062        0.3178751581459445    
     1.500376244267846        0.3135522798205856    
     1.505753936899631        0.3092840714245408    
     1.511131629531415        0.3050699234229273    
     1.516509322163200        0.3009092298850868    
     1.521887014794984        0.2968013885818593    
     1.527264707426768        0.2927458010769310    
     1.532642400058553        0.2887418728124742    
     1.538020092690337        0.2847890131893717    
     1.543397785322121        0.2808866356422532    
     1.548775477953906        0.2770341577094520    
     1.554153170585690        0.2732310010980719    
     1.559530863217475        0.2694765917444928    
     1.564908555849259        0.2657703598703452    
     1.570286248481044        0.2621117400341586    
     1.575663941112828        0.2585001711789063    
     1.581041633744612        0.2549350966755764    
     1.586419326376397        0.2514159643629135    
     1.591797019008181        0.2479422265834583    
     1.597174711639965        0.2445133402161393    
     1.602552404271750        0.2411287667054445    
     1.607930096903534        0.2377879720873316    
     1.613307789535319        0.2344904270120489    
     1.618685482167103        0.2312356067639700    
     1.624063174798887        0.2280229912785656    
     1.629440867430672        0.2248520651565744    
     1.634818560062456        0.2217223176756873    
     1.640196252694241        0.2186332427996543    
     1.645573945326025        0.2155843391848741    
     1.650951637957810        0.2125751101847472    
     1.656329330589594        0.2096050638519972    
     1.661707023221378        0.2066737129396443    
     1.667084715853163        0.2037805748958607    
     1.672462408484947        0.2009251718619953    
     1.677840101116731        0.1981070306669757    
     1.683217793748516        0.1953256828206484    
     1.688595486380300        0.1925806644991526    
     1.693973179012085        0.1898715165390731    
     1.699350871643869        0.1871977844218436    
     1.704728564275653        0.1845590182617891    
     1.710106256907438        0.1819547728035499    
     1.715483949539222        0.1793846073902855    
     1.720861642171007        0.1768480859468938    
     1.726239334802791        0.1743447769746326    
     1.731617027434575        0.1718742535308811    
     1.736994720066360        0.1694360931928541    
     1.742372412698144        0.1670298780608243    
     1.747750105329928        0.1646551946671010    
     1.753127797961713        0.1623116339916064    
     1.758505490593497        0.1599987914503160    
     1.763883183225282        0.1577162668496442    
     1.769260875857066        0.1554636644054186    
     1.774638568488851        0.1532405926810546    
     1.780016261120635        0.1510466645613325    
     1.785393953752419        0.1488814972255227    
     1.790771646384204        0.1467447121155909    
     1.796149339015988        0.1446359349077741    
     1.801527031647773        0.1425547954824247    
     1.806904724279557        0.1405009278937049    
     1.812282416911341        0.1384739703384862    
     1.817660109543126        0.1364735651249555    
     1.823037802174910        0.1344993586403010    
     1.828415494806694        0.1325510013175805    
     1.833793187438479        0.1306281476050825    
     1.839170880070263        0.1287304559317506    
     1.844548572702048        0.1268575886745108    
     1.849926265333832        0.1250092121235915    
     1.855303957965617        0.1231849964534697    
     1.860681650597401        0.1213846156848093    
     1.866059343229185        0.1196077476497155    
     1.871437035860970        0.1178540739639619    
     1.876814728492754        0.1161232799721647    
     1.882192421124538        0.1144150547257388    
     1.887570113756323        0.1127290909523870    
     1.892947806388107        0.1110650850068513    
     1.898325499019892        0.1094227368690119    
     1.903703191651676        0.1078017501035414    
     1.909080884283460        0.1062018317957777    
     1.914458576915245        0.1046226925290319    
     1.919836269547029        0.1030640463500433    
     1.925213962178814        0.1015256107346648    
     1.930591654810598        0.1000071065533536    
     1.935969347442382        0.9850825803674922E-01
     1.941347040074167        0.9702879274127919E-01
     1.946724732705951        0.9556844151479570E-01
     1.952102425337735        0.9412693846182497E-01
     1.957480117969520        0.9270402090891040E-01
     1.962857810601304        0.9129942937002890E-01
     1.968235503233089        0.8991290751202027E-01
     1.973613195864873        0.8854420212036071E-01
     1.978990888496658        0.8719306306514810E-01
     1.984368581128442        0.8585924326716700E-01
     1.989746273760226        0.8454249866412933E-01
     1.995123966392011        0.8324258817705343E-01
     2.000501659023795        0.8195927367672771E-01
     2.005879351655580        0.8069231995037243E-01
     2.011257044287364        0.7944149466847010E-01
     2.016634736919148        0.7820656835178365E-01
     2.022012429550933        0.7698731433853587E-01
     2.027390122182717        0.7578350875178964E-01
     2.032767814814501        0.7459493046701363E-01
     2.038145507446286        0.7342136107985055E-01
     2.043523200078070        0.7226258487408409E-01
     2.048900892709855        0.7111838878979986E-01
     2.054278585341639        0.6998856239176503E-01
     2.059656277973423        0.6887289783801250E-01
     2.065033970605208        0.6777118984865929E-01
     2.070411663236992        0.6668323567491508E-01
     2.075789355868777        0.6560883506832609E-01
     2.081167048500561        0.6454779025024010E-01
     2.086544741132346        0.6349990588149858E-01
     2.091922433764130        0.6246498903236539E-01
     2.097300126395914        0.6144284915266164E-01
     2.102677819027698        0.6043329804215045E-01
     2.108055511659483        0.5943614982114678E-01
     2.113433204291268        0.5845122090137597E-01
     2.118810896923052        0.5747832995705020E-01
     2.124188589554836        0.5651729789618660E-01
     2.129566282186621        0.5556794783216559E-01
     2.134943974818405        0.5463010505552276E-01
     2.140321667450189        0.5370359700600155E-01
     2.145699360081974        0.5278825324480983E-01
     2.151077052713758        0.5188390542713912E-01
     2.156454745345543        0.5099038727491768E-01
     2.161832437977327        0.5010753454980443E-01
     2.167210130609111        0.4923518502643506E-01
     2.172587823240896        0.4837317846588240E-01
     2.177965515872680        0.4752135658937526E-01
     2.183343208504465        0.4667956305224902E-01
     2.188720901136249        0.4584764341814453E-01
     2.194098593768033        0.4502544513344315E-01
     2.199476286399818        0.4421281750192519E-01
     2.204853979031602        0.4340961165968237E-01
     2.210231671663387        0.4261568055025526E-01
     2.215609364295171        0.4183087890002229E-01
     2.220987056926955        0.4105506319381173E-01
     2.226364749558740        0.4028809165074207E-01
     2.231742442190524        0.3952982420030664E-01
     2.237120134822308        0.3878012245868104E-01
     2.242497827454093        0.3803884970527682E-01
     2.247875520085878        0.3730587085950856E-01
     2.253253212717662        0.3658105245779020E-01
     2.258630905349446        0.3586426263076478E-01
     2.264008597981230        0.3515537108075246E-01
     2.269386290613015        0.3445424905943849E-01
     2.274763983244799        0.3376076934576701E-01
     2.280141675876584        0.3307480622405829E-01
     2.285519368508368        0.3239623546235042E-01
     2.290897061140153        0.3172493429095492E-01
     2.296274753771937        0.3106078138124075E-01
     2.301652446403721        0.3040365682461956E-01
     2.307030139035505        0.2975344211174506E-01
     2.312407831667290        0.2911002011193047E-01
     2.317785524299075        0.2847327505276903E-01
     2.323163216930859        0.2784309249997417E-01
     2.328540909562643        0.2721935933741816E-01
     2.333918602194428        0.2660196374737003E-01
     2.339296294826212        0.2599079519094465E-01
     2.344673987457996        0.2538574438874871E-01
     2.350051680089781        0.2478670330173026E-01
     2.355429372721565        0.2419356511222875E-01
     2.360807065353350        0.2360622420520564E-01
     2.366184757985134        0.2302457614968127E-01
     2.371562450616918        0.2244851768036006E-01
     2.376940143248703        0.2187794667944384E-01
     2.382317835880487        0.2131276215864579E-01
     2.387695528512272        0.2075286424136902E-01
     2.393073221144056        0.2019815414508313E-01
     2.398450913775840        0.1964853416388093E-01
     2.403828606407625        0.1910390765121108E-01
     2.409206299039409        0.1856417900280324E-01
     2.414583991671194        0.1802925363975081E-01
     2.419961684302978        0.1749903799177726E-01
     2.425339376934762        0.1697343948067518E-01
     2.430717069566547        0.1645236650398128E-01
     2.436094762198331        0.1593572843180284E-01
     2.441472454830115        0.1542343593092785E-01
     2.446850147461900        0.1491540344251231E-01
     2.452227840093685        0.1441155692983790E-01
     2.457605532725469        0.1391184728414486E-01
     2.462983225357253        0.1341626572236266E-01
     2.468360917989037        0.1292485672044016E-01
     2.473738610620822        0.1243772587812730E-01
     2.479116303252606        0.1195504223041699E-01
     2.484493995884391        0.1147703582188362E-01
     2.489871688516175        0.1100399184567345E-01
     2.495249381147960        0.1053624264015174E-01
     2.500627073779744        0.1007415861165677E-01
     2.506004766411528        0.9618138875751305E-02
     2.511382459043313        0.9168602158073141E-02
     2.516760151675097        0.8725978295179413E-02
     2.522137844306882        0.8290700527308610E-02
     2.527515536938666        0.7863198670989984E-02
     2.532893229570450        0.7443893189863028E-02
     2.538270922202235        0.7033190137848986E-02
     2.543648614834019        0.6631476922322910E-02
     2.549026307465803        0.6239118820645274E-02
     2.554404000097588        0.5856456177137016E-02
     2.559781692729372        0.5483802206448822E-02
     2.565159385361157        0.5121441331241923E-02
     2.570537077992941        0.4769627985827743E-02
     2.575914770624725        0.4428585821898401E-02
     2.581292463256510        0.4098507257143536E-02
     2.586670155888294        0.3779553311883128E-02
     2.592047848520079        0.3471853682489340E-02
     2.597425541151863        0.3175507002976991E-02
     2.602803233783647        0.2890581247262875E-02
     2.608180926415432        0.2617114223611874E-02
     2.613558619047216        0.2355114108702823E-02
     2.618936311679001        0.2104559959855611E-02
     2.624314004310785        0.1865402127211452E-02
     2.629691696942569        0.1637562457459241E-02
     2.635069389574354        0.1420934126107386E-02
     2.640447082206138        0.1215380834117055E-02
     2.645824774837922        0.1020734908631591E-02
     2.651202467469707        0.8367934434917256E-03
     2.656580160101492        0.6633107120676991E-03
     2.661957852733276        0.4999828361210509E-03
     2.667335545365060        0.3464141985443415E-03
     2.672713237996845        0.2020319648650509E-03
     2.678090930628629        0.6578641413971915E-04
     2.683468623260413         0.000000000000000    
  0  4  1  0  1.000000   #orbital l, n, z, is_polarized, population
 500    0.1555981902741958E-01     7.764349694682369     # npts, delta, cutoff
     0.000000000000000        0.5634355606336746    
    0.1555981902741958E-01    0.5634973439292355    
    0.3111963805483915E-01    0.5637201633191351    