<?xml version="1.0" encoding="UTF-8" ?>
<psml version="1.1" energy_unit="hartree" length_unit="bohr"
 uuid="b8968150-1d5f-11e8-4d69-b34aadbf136f"
 xmlns="http://esl.cecam.org/PSML/ns/1.1">
<provenance creator="ONCVPSP-3.3.0+psml-3.3.0-73 (scalar-relativistic)"
 date="2018-03-01">
<annotation action="semilocal-pseudopotential-generation"
 action-cont="projectors-generation" />
<input-file name="oncvpsp-input">
<![CDATA[# atsym z nc nv iexc psfile
Cr 24 3 4 -116133 upf
# n l f
1 0 2.0
2 0 2.0
2 1 6.0
3 0 2.0
3 1 6.0
3 2 5.0
4 0 1.0
# lmax
2
# l rc ep ncon nbas qcut
0 1.3 0.0 4 8 8.9
1 1.3 0.0 4 7 10.0
2 1.7 0.0 4 8 10.0
# lloc lpopt rc5 dvloc0
4 5 1.3 0.0
# l nproj debl
0 2 1.0
1 2 1.0
2 2 1.0
# icmod fcfact
3 5 1.32
# epsh1 epsh2 depsh
-18.0 12.0 0.02
# rlmax drl
6.0 0.01
 0
]]>
</input-file>
</provenance>
<pseudo-atom-spec atomic-label="Cr" atomic-number="24" z-pseudo="14"
 flavor="Hamann&apos;s oncvpsp" relativity="scalar" spin-dft="no"
 core-corrections="yes">
<annotation pseudo-energy="-85.9949773863" />
<exchange-correlation>
<annotation oncvpsp-xc-code="-116133" oncvpsp-xc-type="libxc-interface" />
<libxc-info number-of-functionals="2">
<functional name="Perdew, Burke &amp; Ernzerhof SOL (GGA)" type="exchange"
 id="116" />
<functional name="Perdew, Burke &amp; Ernzerhof SOL (GGA)" type="correlation"
 id="133" />
</libxc-info>
</exchange-correlation>
<valence-configuration total-valence-charge="14">
<shell n="3" l="s" occupation="2" />
<shell n="3" l="p" occupation="6" />
<shell n="3" l="d" occupation="5" />
<shell n="4" l="s" occupation="1" />
</valence-configuration>
</pseudo-atom-spec>
<grid npts="457">
<annotation type="sampled from oncvpsp log grid"
 recipe="r(i:1..N) = r1*exp(a*(i-1)) + r=0; resampled"
 recipe-cont="r1: scale; a: step" scale="0.208333333333E-04"
 step="0.119285708653E-01" delta="0.500000000000E-02" rmax="44.0721796572" />
<grid-data>
  0.000000000000E+00  5.032624347497E-03  1.005227218795E-02  1.508001122169E-02
  2.031956831929E-02  2.548849629768E-02  3.084838375803E-02  3.602293359331E-02
  4.107378401246E-02  4.627749473396E-02  5.152220634232E-02  5.668113689579E-02
  6.235663237039E-02  6.778697285802E-02  7.281641866882E-02  7.821902357048E-02
  8.402247405418E-02  8.918627550078E-02  9.466743067541E-02  1.004854433080E-01
  1.066610157766E-01  1.118736391042E-01  1.173410081958E-01  1.230755727145E-01
  1.290903907501E-01  1.353991585533E-01  1.420162417235E-01  1.471904228460E-01
  1.525531186762E-01  1.581111975076E-01  1.638717778713E-01  1.698422376531E-01
  1.760302235427E-01  1.824436608270E-01  1.890907635409E-01  1.959800449871E-01
  2.031203286396E-01  2.105207594445E-01  2.156035726605E-01  2.208091053189E-01
  2.261403203577E-01  2.316002522524E-01  2.371920087428E-01  2.429187726019E-01
  2.487838034476E-01  2.547904395980E-01  2.609420999717E-01  2.672422860334E-01
  2.736945837874E-01  2.803026658183E-01  2.870702933818E-01  2.940013185453E-01
  3.010996863802E-01  3.083694372082E-01  3.158147089001E-01  3.234397392318E-01
  3.312488682958E-01  3.392465409720E-01  3.474373094572E-01  3.558258358567E-01
  3.644168948376E-01  3.732153763466E-01  3.822262883931E-01  3.914547599001E-01
  4.009060436231E-01  4.105855191403E-01  4.204986959145E-01  4.255446802654E-01
  4.306512164286E-01  4.358190310258E-01  4.410488593981E-01  4.463414457109E-01
  4.516975430594E-01  4.571179135761E-01  4.626033285390E-01  4.681545684815E-01
  4.737724233033E-01  4.794576923829E-01  4.852111846915E-01  4.910337189078E-01
  4.969261235347E-01  5.028892370171E-01  5.089239078613E-01  5.150309947556E-01
  5.212113666927E-01  5.274659030930E-01  5.337954939301E-01  5.402010398573E-01
  5.466834523356E-01  5.532436537636E-01  5.598825776088E-01  5.666011685401E-01
  5.734003825626E-01  5.802811871533E-01  5.872445613992E-01  5.942914961360E-01
  6.014229940896E-01  6.086400700187E-01  6.159437508589E-01  6.233350758692E-01
  6.308150967796E-01  6.383848779410E-01  6.460454964763E-01  6.537980424340E-01
  6.616436189432E-01  6.695833423705E-01  6.776183424790E-01  6.857497625887E-01
  6.939787597398E-01  7.023065048566E-01  7.107341829149E-01  7.192629931099E-01
  7.278941490272E-01  7.366288788155E-01  7.454684253613E-01  7.544140464657E-01
  7.634670150233E-01  7.726286192035E-01  7.819001626340E-01  7.912829645856E-01
  8.007783601606E-01  8.103877004825E-01  8.201123528883E-01  8.299537011230E-01
  8.399131455365E-01  8.499921032829E-01  8.601920085223E-01  8.705143126246E-01
  8.809604843761E-01  8.915320101886E-01  9.022303943108E-01  9.130571590426E-01
  9.240138449511E-01  9.351020110905E-01  9.463232352236E-01  9.576791140463E-01
  9.691712634148E-01  9.808013185758E-01  9.925709343987E-01  1.004481785611E+00
  1.016535567039E+00  1.028733993843E+00  1.041078801769E+00  1.053571747391E+00
  1.066214608359E+00  1.079009183660E+00  1.091957293864E+00  1.105060781390E+00
  1.118321510767E+00  1.131741368896E+00  1.145322265323E+00  1.159066132506E+00
  1.172974926096E+00  1.187050625210E+00  1.201295232712E+00  1.215710775505E+00
  1.230299304811E+00  1.245062896469E+00  1.260003651226E+00  1.275123695041E+00
  1.290425179381E+00  1.305910281534E+00  1.321581204912E+00  1.337440179371E+00
  1.353489461524E+00  1.369731335062E+00  1.386168111083E+00  1.402802128416E+00
  1.419635753957E+00  1.436671383004E+00  1.453911439600E+00  1.471358376875E+00
  1.489014677398E+00  1.506882853527E+00  1.524965447769E+00  1.543265033142E+00
  1.561784213540E+00  1.580525624102E+00  1.599491931592E+00  1.618685834771E+00
  1.638110064788E+00  1.657767385566E+00  1.677660594192E+00  1.697792521323E+00
  1.718166031578E+00  1.738784023957E+00  1.759649432245E+00  1.780765225432E+00
  1.802134408137E+00  1.823760021035E+00  1.845645141287E+00  1.867792882983E+00
  1.890206397578E+00  1.912888874349E+00  1.935843540841E+00  1.959073663332E+00
  1.982582547292E+00  2.006373537859E+00  2.030450020313E+00  2.054815420557E+00
  2.079473205604E+00  2.104426884071E+00  2.129680006680E+00  2.155236166760E+00
  2.181099000761E+00  2.207272188770E+00  2.233759455036E+00  2.260564568496E+00
  2.287691343318E+00  2.315143639438E+00  2.342925363111E+00  2.371040467468E+00
  2.399492953078E+00  2.428286868515E+00  2.457426310937E+00  2.486915426668E+00
  2.516758411788E+00  2.546959512730E+00  2.577523026883E+00  2.608453303205E+00
  2.639754742844E+00  2.671431799758E+00  2.703488981355E+00  2.735930849131E+00
  2.768762019321E+00  2.801987163552E+00  2.835611009515E+00  2.869638341629E+00
  2.904074001729E+00  2.938922889750E+00  2.974189964427E+00  3.009880244000E+00
  3.045998806928E+00  3.082550792611E+00  3.119541402122E+00  3.156975898948E+00
  3.194859609735E+00  3.233197925052E+00  3.271996300152E+00  3.311260255754E+00
  3.350995378823E+00  3.391207323369E+00  3.431901811250E+00  3.473084632985E+00
  3.514761648580E+00  3.556938788363E+00  3.599622053824E+00  3.642817518470E+00
  3.686531328691E+00  3.730769704636E+00  3.775538941091E+00  3.820845408384E+00
  3.866695553285E+00  3.913095899924E+00  3.960053050723E+00  4.007573687332E+00
  4.055664571580E+00  4.104332546439E+00  4.153584536996E+00  4.203427551440E+00
  4.253868682058E+00  4.304915106242E+00  4.356574087517E+00  4.408852976567E+00
  4.461759212286E+00  4.515300322834E+00  4.569483926708E+00  4.624317733828E+00
  4.679809546634E+00  4.735967261194E+00  4.792798868328E+00  4.850312454748E+00
  4.908516204205E+00  4.967418398655E+00  5.027027419439E+00  5.087351748472E+00
  5.148399969454E+00  5.210180769088E+00  5.272702938317E+00  5.335975373576E+00
  5.400007078059E+00  5.464807162996E+00  5.530384848952E+00  5.596749467139E+00
  5.663910460745E+00  5.731877386274E+00  5.800659914909E+00  5.870267833888E+00
  5.940711047895E+00  6.011999580470E+00  6.084143575435E+00  6.157153298341E+00
  6.231039137921E+00  6.305811607576E+00  6.381481346867E+00  6.458059123029E+00
  6.535555832505E+00  6.613982502495E+00  6.693350292525E+00  6.773670496036E+00
  6.854954541988E+00  6.937213996492E+00  7.020460564450E+00  7.104706091223E+00
  7.189962564318E+00  7.276242115090E+00  7.363557020471E+00  7.451919704716E+00
  7.541342741173E+00  7.631838854067E+00  7.723420920316E+00  7.816101971360E+00
  7.909895195016E+00  8.004813937356E+00  8.100871704605E+00  8.198082165060E+00
  8.296459151040E+00  8.396016660853E+00  8.496768860783E+00  8.598730087113E+00
  8.701914848158E+00  8.806337826336E+00  8.912013880252E+00  9.018958046815E+00
  9.127185543377E+00  9.236711769897E+00  9.347552311136E+00  9.459722938870E+00
  9.573239614136E+00  9.688118489506E+00  9.804375911380E+00  9.922028422316E+00
  1.004109276338E+01  1.016158587654E+01  1.028352490706E+01  1.040692720595E+01
  1.053181033242E+01  1.065819205641E+01  1.078609036109E+01  1.091552344542E+01
  1.104650972676E+01  1.117906784348E+01  1.131321665761E+01  1.144897525750E+01
  1.158636296059E+01  1.172539931611E+01  1.186610410791E+01  1.200849735720E+01
  1.215259932549E+01  1.229843051740E+01  1.244601168360E+01  1.259536382381E+01
  1.274650818969E+01  1.289946628797E+01  1.305425988342E+01  1.321091100203E+01
  1.336944193405E+01  1.352987523726E+01  1.369223374011E+01  1.385654054499E+01
  1.402281903153E+01  1.419109285991E+01  1.436138597422E+01  1.453372260591E+01
  1.470812727719E+01  1.488462480451E+01  1.506324030217E+01  1.524399918579E+01
  1.542692717602E+01  1.561205030213E+01  1.579939490576E+01  1.598898764463E+01
  1.618085549636E+01  1.637502576232E+01  1.657152607147E+01  1.677038438433E+01
  1.697162899694E+01  1.717528854490E+01  1.738139200744E+01  1.758996871153E+01
  1.780104833607E+01  1.801466091610E+01  1.823083684709E+01  1.844960688926E+01
  1.867100217193E+01  1.889505419799E+01  1.912179484837E+01  1.935125638655E+01
  1.958347146319E+01  1.981847312075E+01  2.005629479820E+01  2.029697033577E+01
  2.054053397980E+01  2.078702038756E+01  2.103646463221E+01  2.128890220780E+01
  2.154436903429E+01  2.180290146270E+01  2.206453628026E+01  2.232931071562E+01
  2.259726244421E+01  2.286842959354E+01  2.314285074866E+01  2.342056495764E+01
  2.370161173713E+01  2.398603107798E+01  2.427386345092E+01  2.456514981233E+01
  2.485993161007E+01  2.515825078940E+01  2.546014979887E+01  2.576567159645E+01
  2.607485965561E+01  2.638775797148E+01  2.670441106714E+01  2.702486399994E+01
  2.734916236794E+01  2.767735231636E+01  2.800948054415E+01  2.834559431068E+01
  2.868574144241E+01  2.902997033972E+01  2.937832998380E+01  2.973086994360E+01
  3.008764038293E+01  3.044869206752E+01  3.081407637233E+01  3.118384528880E+01
  3.155805143227E+01  3.193674804945E+01  3.231998902605E+01  3.270782889436E+01
  3.310032284109E+01  3.349752671518E+01  3.389949703577E+01  3.430629100020E+01
  3.471796649220E+01  3.513458209010E+01  3.555619707519E+01  3.598287144009E+01
  3.641466589737E+01  3.685164188814E+01  3.729386159079E+01  3.774138792988E+01
  3.819428458504E+01  3.865261600006E+01  3.911644739206E+01  3.958584476077E+01
  4.006087489790E+01  4.054160539667E+01  4.102810466143E+01  4.152044191737E+01
  4.201868722038E+01  4.252291146702E+01  4.303318640463E+01  4.354958464148E+01
  4.407217965718E+01
</grid-data>
</grid>
<valence-charge total-charge="14" is-unscreening-charge="yes"
 rescaled-to-z-pseudo="no">
<radfunc>
<data npts="457">
  4.563264056947E+00  4.567269952088E+00  4.579243780992E+00  4.599216498120E+00
  4.628514609954E+00  4.665882834108E+00  4.713483644010E+00  4.767956883850E+00
  4.829162983523E+00  4.900480981282E+00  4.980793406547E+00  5.067996717796E+00
  5.173259993410E+00  5.283047419086E+00  5.392569014202E+00  5.518531344724E+00
  5.663327347473E+00  5.800326304852E+00  5.954043532123E+00  6.126425253687E+00
  6.319618075410E+00  6.490734774393E+00  6.677988117015E+00  6.882784679675E+00
  7.106628154161E+00  7.351120003539E+00  7.617958335675E+00  7.833826201943E+00
  8.064057939460E+00  8.309466963588E+00  8.570888877264E+00  8.849177461220E+00
  9.145199565446E+00  9.459828718433E+00  9.793937247931E+00  1.014838668272E+01
  1.052401617988E+01  1.092162869695E+01  1.119928977514E+01  1.148726152740E+01
  1.178573240776E+01  1.209487066096E+01  1.241482080792E+01  1.274569978453E+01
  1.308759271310E+01  1.344054828679E+01  1.380457374870E+01  1.417962944947E+01
  1.456562297027E+01  1.496240280173E+01  1.536975157465E+01  1.578737884434E+01
  1.621491343835E+01  1.665189538689E+01  1.709776746618E+01  1.755186639886E+01
  1.801341377098E+01  1.848150674335E+01  1.895510865604E+01  1.943303964830E+01
  1.991396744272E+01  2.039639847184E+01  2.087866955753E+01  2.135894038764E+01
  2.183518707135E+01  2.230519709217E+01  2.276656601599E+01  2.299320587143E+01
  2.321669634904E+01  2.343668283107E+01  2.365279897578E+01  2.386466693623E+01
  2.407189763793E+01  2.427409111948E+01  2.447083694002E+01  2.466171465759E+01
  2.484629438212E+01  2.502413740706E+01  2.519479692315E+01  2.535781881800E+01
  2.551274256472E+01  2.565910220259E+01  2.579642741258E+01  2.592424468990E+01
  2.604207861553E+01  2.614945322813E+01  2.624589349685E+01  2.633092689545E+01
  2.640408507673E+01  2.646490564615E+01  2.651293403198E+01  2.654772544881E+01
  2.656884695006E+01  2.657587956391E+01  2.656842050598E+01  2.654608546103E+01
  2.650851092412E+01  2.645535659101E+01  2.638630778559E+01  2.630107791122E+01
  2.619941091094E+01  2.608108372069E+01  2.594590869774E+01  2.579373600572E+01
  2.562445593589E+01  2.543800114362E+01  2.523434877772E+01  2.501352247938E+01
  2.477559422707E+01  2.452068600286E+01  2.424897125580E+01  2.396067613769E+01
  2.365608048699E+01  2.333551853759E+01  2.299937932941E+01  2.264810680015E+01
  2.228219953828E+01  2.190221018032E+01  2.150874443738E+01  2.110245973936E+01
  2.068406348815E+01  2.025431091516E+01  1.981400254243E+01  1.936398125090E+01
  1.890512896421E+01  1.843836296099E+01  1.796463183382E+01  1.748491111794E+01
  1.700019861786E+01  1.651150946498E+01  1.601987094405E+01  1.552631713071E+01
  1.503188338645E+01  1.453760076090E+01  1.404449035414E+01  1.355355769422E+01
  1.306578718634E+01  1.258213669112E+01  1.210353228867E+01  1.163086328448E+01
  1.116497751081E+01  1.070667697403E+01  1.025671389471E+01  9.815787182226E+00
  9.384539379809E+00  8.963554110002E+00  8.553354043210E+00  8.154399404828E+00
  7.767087028739E+00  7.391749957173E+00  7.028657579209E+00  6.678016292720E+00
  6.339970667429E+00  6.014605080249E+00  5.701945788261E+00  5.401963399682E+00
  5.114575699218E+00  4.839650781169E+00  4.577010441791E+00  4.326433781653E+00
  4.087660969029E+00  3.860397116788E+00  3.644316927216E+00  3.439072190490E+00
  3.244301086891E+00  3.059631337927E+00  2.884683198110E+00  2.719072286676E+00
  2.562412241970E+00  2.414317177249E+00  2.274403930192E+00  2.142294099369E+00
  2.017615863734E+00  1.900005583817E+00  1.789109185891E+00  1.684583332950E+00
  1.586096388797E+00  1.493329183995E+00  1.405975594584E+00  1.323742946495E+00
  1.246352260070E+00  1.173538350221E+00  1.105049798093E+00  1.040648809770E+00
  9.801109763235E-01  9.232246127498E-01  8.697887114931E-01  8.196101556084E-01
  7.725037454005E-01  7.282921426659E-01  6.868058101812E-01  6.478829228902E-01
  6.113692536768E-01  5.771180365120E-01  5.449898096614E-01  5.148522415220E-01
  4.865799415381E-01  4.600542585149E-01  4.351630685188E-01  4.118005544137E-01
  3.898669789460E-01  3.692684531467E-01  3.499167016835E-01  3.317288266490E-01
  3.146270711414E-01  2.985385838531E-01  2.833951857586E-01  2.691331398656E-01
  2.556929248768E-01  2.430190134997E-01  2.310596560361E-01  2.197666697890E-01
  2.090952347345E-01  1.990036958258E-01  1.894533722220E-01  1.804083736669E-01
  1.718354241814E-01  1.637036931788E-01  1.559846340605E-01  1.486518303047E-01
  1.416808490209E-01  1.350491019043E-01  1.287357134927E-01  1.227213965977E-01
  1.169883347588E-01  1.115200715421E-01  1.063014064902E-01  1.013182975108E-01
  9.655776947801E-02  9.200782881186E-02  8.765738378981E-02  8.349617034122E-02
  7.951468307051E-02  7.570411125382E-02  7.205627955410E-02  6.856359320151E-02
  6.521898738961E-02  6.201588064222E-02  5.894813191169E-02  5.601000117619E-02
  5.319611331054E-02  5.050142501363E-02  4.792119458361E-02  4.545095434086E-02
  4.308648550814E-02  4.082379536611E-02  3.865909651213E-02  3.658878805937E-02
  3.460943862288E-02  3.271777094822E-02  3.091064804790E-02  2.918506071959E-02
  2.753811632932E-02  2.596702875145E-02  2.446910936583E-02  2.304175902094E-02
  2.168246087956E-02  2.038877407135E-02  1.915832808373E-02  1.798881782918E-02
  1.687799933296E-02  1.582368599090E-02  1.482374534933E-02  1.387609637611E-02
  1.297870716110E-02  1.212959303364E-02  1.132681505016E-02  1.056847882079E-02
  9.852733641974E-03  9.177771902390E-03  8.541828729335E-03  7.943181842622E-03
  7.380151583016E-03  6.851101082346E-03  6.354436542858E-03  5.888607594206E-03
  5.452107697671E-03  5.043474568880E-03  4.661290592354E-03  4.304183203645E-03
  3.970825217588E-03  3.659935084117E-03  3.370277056253E-03  3.100661257983E-03
  2.849943642924E-03  2.617025837658E-03  2.400854866503E-03  2.200422757111E-03
  2.014766028658E-03  1.842965066478E-03  1.684143388767E-03  1.537466812459E-03
  1.402142526560E-03  1.277418082059E-03  1.162580308205E-03  1.056954165227E-03
  9.599015437537E-04  8.708200210837E-04  7.891415842268E-04  7.143313292480E-04
  6.458861459280E-04  5.833333961567E-04  5.262295937992E-04  4.741590930473E-04
  4.267327915215E-04  3.835868536202E-04  3.443814588582E-04  3.087995791981E-04
  2.765457886735E-04  2.473451079406E-04  2.209418857847E-04  1.970987190531E-04
  1.755954119928E-04  1.562279755404E-04  1.388076667440E-04  1.231600681871E-04
  1.091242070349E-04  9.655171312314E-05  8.530601535749E-05  7.526157558222E-05
  6.630315899605E-05  5.832514014696E-05  5.123084350873E-05  4.493191763176E-05
  3.934774186100E-05  3.440486462153E-05  3.003647228392E-05  2.618188763431E-05
  2.278609698598E-05  1.979930497906E-05  1.717651612256E-05  1.487714213707E-05
  1.286463415805E-05  1.110613885954E-05  9.572177555481E-06  8.236347333239E-06
  7.075043270948E-06  6.067200787958E-06  5.194057177106E-06  4.438931368828E-06
  3.787020981133E-06  3.225215716389E-06  2.741926176063E-06  2.326927178074E-06
  1.971214678352E-06  1.666875418383E-06  1.406968443843E-06  1.185417665639E-06
  9.969146634264E-07  8.368309627034E-07  7.011390494396E-07  5.863414205765E-07
  4.894070041929E-07  4.077143193475E-07  3.390007816480E-07  2.813176029197E-07
  2.329897307996E-07  1.925805014286E-07  1.588599532648E-07  1.307785050573E-07
  1.074390971092E-07  8.808314307020E-08  7.206654176680E-08  5.884122908367E-08
  4.794349055128E-08  3.898249909666E-08  3.162962362497E-08  2.560912599207E-08
  2.069015433624E-08  1.667986604596E-08  1.341752989410E-08  1.076948063304E-08
  8.624813296913E-09  6.891717702360E-09  5.494365585625E-09  4.370273528399E-09
  3.468075353437E-09  2.745639237593E-09  1.140893509667E-09  8.884725667046E-10
  6.899996556959E-10  5.343751264385E-10  4.126886017839E-10  3.178072184103E-10
  2.440372062783E-10  1.868465530363E-10  1.426383941910E-10  1.085663991604E-10
  8.238481972482E-11  6.232706007354E-11  4.700764285440E-11  3.534330679830E-11
  2.648969949218E-11  1.979074217252E-11  1.473825830047E-11  1.093988844846E-11
  8.093673166022E-12  5.967983861842E-12  4.385728751740E-12  3.211964692745E-12
  2.344213224845E-12  1.704916335482E-12  1.235579426305E-12  8.922400043829E-13
  6.419743792829E-13  4.602141836668E-13  3.286924120717E-13  2.338770291250E-13
  1.657808113629E-13  1.170604261118E-13  8.233702762243E-14  5.768585842232E-14
  4.025429442562E-14  2.797712608609E-14  1.936515976442E-14  1.334888500173E-14
  9.163331114130E-15  6.263607584744E-15  4.263207784065E-15  2.889129509204E-15
  1.949366736954E-15  1.309463288125E-15  8.756756276914E-16  5.829348220533E-16
  3.862779287249E-16  2.547762938561E-16  1.672527015032E-16  1.092742294499E-16
  7.105064652251E-17  4.597257904379E-17  2.959953120453E-17  1.896270101259E-17
  1.208701107894E-17  7.665043840137E-18  4.835714917121E-18  3.034799895467E-18
  1.894503575505E-18  1.176329909870E-18  7.264457728709E-19  4.461586155538E-19
  2.724951121885E-19  1.654940868492E-19  9.993812731865E-20  6.000330473407E-20
  3.581659399279E-20  2.125338434443E-20  1.253648488766E-20  7.350148848627E-21
  4.283093508981E-21  2.480436086060E-21  1.427496815893E-21  8.163302868685E-22
  4.638390901558E-22  0.000000000000E+00  0.000000000000E+00  0.000000000000E+00
  0.000000000000E+00
</data>
</radfunc>
</valence-charge>
<pseudocore-charge matching-radius="0.473772423303"
 number-of-continuous-derivatives="4">
<annotation model-charge-form="Teter function with specified parameters" />
<radfunc>
<data npts="290">
  1.250015400540E+02  1.249759665671E+02  1.248995389154E+02  1.247720983658E+02
  1.245852525674E+02  1.243471087515E+02  1.240440267792E+02  1.236975619338E+02
  1.233087511559E+02  1.228563404455E+02  1.223476907892E+02  1.217963777781E+02
  1.211322422567E+02  1.204411386039E+02  1.197533077777E+02  1.189641939890E+02
  1.180596898459E+02  1.172064410325E+02  1.162520096951E+02  1.151853774070E+02
  1.139945884197E+02  1.129439274740E+02  1.117985360391E+02  1.105510176822E+02
  1.091936384340E+02  1.077183663517E+02  1.061169269613E+02  1.048279750940E+02
  1.034597132147E+02  1.020085528590E+02  1.004709438745E+02  9.884341340246E+01
  9.712261104107E+01  9.530536070152E+01  9.338871963258E+01  9.137004502925E+01
  8.924706854762E+01  8.701797891704E+01  8.547231800781E+01  8.387870183366E+01
  8.223705272095E+01  8.054744878117E+01  7.881013887350E+01  7.702555802825E+01
  7.519434322945E+01  7.331734943174E+01  7.139566566178E+01  6.943063102719E+01
  6.742385042639E+01  6.537720972176E+01  6.329289010517E+01  6.117338135152E+01
  5.902149362066E+01  5.684036743434E+01  5.463348142094E+01  5.240465739013E+01
  5.015806227203E+01  4.789820643318E+01  4.562993786670E+01  4.335843174768E+01
  4.108917485057E+01  3.882794434421E+01  3.658078051611E+01  3.435395303256E+01
  3.215392041759E+01  2.998728253517E+01  2.786072598634E+01  2.681457646804E+01
  2.578096248857E+01  2.476071571581E+01  2.375466048937E+01  2.276361134860E+01
  2.178837047943E+01  2.082972508815E+01  1.988844471127E+01  1.896527847198E+01
  1.806095229458E+01  1.717616608960E+01  1.631159092366E+01  1.546786618891E+01
  1.464559678835E+01  1.384535035435E+01  1.306765451864E+01  1.231299425307E+01
  1.158180930143E+01  1.087449172319E+01  1.019138357080E+01  9.532774722631E+00
  8.898900893945E+00  8.289941848399E+00  7.706019832501E+00  7.147198255070E+00
  6.613480633170E+00  6.104809825098E+00  5.621067569845E+00  5.162074350951E+00
  4.727589600883E+00  4.317312259923E+00  3.930881701090E+00  3.567879029820E+00
  3.227828763998E+00  2.910200896508E+00  2.614413338716E+00  2.339834739321E+00
  2.085787668756E+00  1.851552154900E+00  1.636369551297E+00  1.439446714405E+00
  1.259960461745E+00  1.097062278178E+00  9.498832330717E-01  8.175390668339E-01
  6.991354013473E-01  5.937730252939E-01  5.005532023079E-01  4.185829474576E-01
  3.469802158064E-01  2.848789458370E-01  2.314339004192E-01  1.858252488341E-01
  1.472628351886E-01  1.149900814034E-01  8.828747686093E-02  6.647561173915E-02
  4.891771702351E-02  3.502168110651E-02  2.424152068223E-02  1.607829219691E-02
  1.008043928661E-02  5.843581241996E-03  3.009757390559E-03  1.266152151953E-03
  3.433351618710E-04  1.306001709863E-05  8.567360803623E-05  4.071954152191E-04
  8.561323045492E-04  1.340099034216E-03  1.792317687362E-03  2.168070411982E-03
  2.441179077112E-03  2.600582694645E-03  2.647078727738E-03  2.590287799051E-03
  2.445892988184E-03  2.233195103228E-03  1.973014331474E-03  1.685956885108E-03
  1.391053075834E-03  1.104761129355E-03  8.403194553908E-04  6.074194863558E-04
  4.121620264682E-04  2.572527014502E-04  1.423868828506E-04  6.477160225923E-05
  1.973157997914E-05  1.348557103659E-06  3.087496709716E-06  1.836963805118E-05
  4.106045765046E-05  6.584982300852E-05  8.851145402596E-05  1.060386289401E-04
  1.166622780555E-04  1.197656313319E-04  1.157159371452E-04  1.056380801433E-04
  9.115697703032E-05  7.413537262492E-05  5.643122672830E-05  3.969458073557E-05
  2.521807873065E-05  1.384876323640E-05  5.962008887392E-06  1.492143881496E-06
  9.031062723281E-09  8.261166129719E-07  3.123519748361E-06  6.069747915314E-06
  8.927481405674E-06  1.113227649936E-05  1.233751220816E-05  1.242385978289E-05
  1.147634750251E-05  9.736120946357E-06  7.536768685320E-06  5.236282093640E-06
  3.155256274725E-06  1.529965041405E-06  4.858221493755E-07  3.300325721425E-08
  0.000000000000E+00  0.000000000000E+00  0.000000000000E+00  0.000000000000E+00
  0.000000000000E+00  0.000000000000E+00  0.000000000000E+00  0.000000000000E+00
  0.000000000000E+00  0.000000000000E+00  0.000000000000E+00  0.000000000000E+00
  0.000000000000E+00  0.000000000000E+00  0.000000000000E+00  0.000000000000E+00
  0.000000000000E+00  0.000000000000E+00  0.000000000000E+00  0.000000000000E+00
  0.000000000000E+00  0.000000000000E+00  0.000000000000E+00  0.000000000000E+00
  0.000000000000E+00  0.000000000000E+00  0.000000000000E+00  0.000000000000E+00
  0.000000000000E+00  0.000000000000E+00  0.000000000000E+00  0.000000000000E+00
  0.000000000000E+00  0.000000000000E+00  0.000000000000E+00  0.000000000000E+00
  0.000000000000E+00  0.000000000000E+00  0.000000000000E+00  0.000000000000E+00
  0.000000000000E+00  0.000000000000E+00  0.000000000000E+00  0.000000000000E+00
  0.000000000000E+00  0.000000000000E+00  0.000000000000E+00  0.000000000000E+00
  0.000000000000E+00  0.000000000000E+00  0.000000000000E+00  0.000000000000E+00
  0.000000000000E+00  0.000000000000E+00  0.000000000000E+00  0.000000000000E+00
  0.000000000000E+00  0.000000000000E+00  0.000000000000E+00  0.000000000000E+00
  0.000000000000E+00  0.000000000000E+00  0.000000000000E+00  0.000000000000E+00
  0.000000000000E+00  0.000000000000E+00  0.000000000000E+00  0.000000000000E+00
  0.000000000000E+00  0.000000000000E+00  0.000000000000E+00  0.000000000000E+00
  0.000000000000E+00  0.000000000000E+00  0.000000000000E+00  0.000000000000E+00
  0.000000000000E+00  0.000000000000E+00  0.000000000000E+00  0.000000000000E+00
  0.000000000000E+00  0.000000000000E+00  0.000000000000E+00  0.000000000000E+00
  0.000000000000E+00  0.000000000000E+00  0.000000000000E+00  0.000000000000E+00
  0.000000000000E+00  0.000000000000E+00  0.000000000000E+00  0.000000000000E+00
  0.000000000000E+00  0.000000000000E+00  0.000000000000E+00  0.000000000000E+00
  0.000000000000E+00  0.000000000000E+00
</data>
</radfunc>
</pseudocore-charge>
<semilocal-potentials set="scalar_relativistic">
<slps n="3" l="s" rc="1.30591028153" eref="-2.71104838998">
<radfunc>
<data npts="290">
 -1.101620151818E+01 -1.101753709200E+01 -1.102149435106E+01 -1.102808865936E+01
 -1.103775722133E+01 -1.105008251693E+01 -1.106577289719E+01 -1.108371510404E+01
 -1.110385788934E+01 -1.112730578648E+01 -1.115368172914E+01 -1.118228591357E+01
 -1.121676592175E+01 -1.125267194736E+01 -1.128843437398E+01 -1.132949556465E+01
 -1.137660447922E+01 -1.142108682266E+01 -1.147089401390E+01 -1.152661948713E+01
 -1.158891105403E+01 -1.164394301717E+01 -1.170401330371E+01 -1.176953169765E+01
 -1.184093056080E+01 -1.191866367300E+01 -1.200320437783E+01 -1.207137174420E+01
 -1.214385572422E+01 -1.222087125519E+01 -1.230263497161E+01 -1.238936356531E+01
 -1.248127184081E+01 -1.257857043190E+01 -1.268146314423E+01 -1.279014388739E+01
 -1.290479315958E+01 -1.302557404794E+01 -1.310957185207E+01 -1.319639349103E+01
 -1.328606829088E+01 -1.337861873667E+01 -1.347405963252E+01 -1.357239720569E+01
 -1.367362815358E+01 -1.377773863311E+01 -1.388470319193E+01 -1.399448364174E+01
 -1.410702787409E+01 -1.422226861995E+01 -1.434012215468E+01 -1.446048695112E+01
 -1.458324228410E+01 -1.470824679116E+01 -1.483533699538E+01 -1.496432579811E+01
 -1.509500095139E+01 -1.522712352313E+01 -1.536042637109E+01 -1.549461264732E+01
 -1.562935436038E+01 -1.576429103152E+01 -1.589902849139E+01 -1.603313787801E+01
 -1.616615491367E+01 -1.629757955918E+01 -1.642687616664E+01 -1.649054950943E+01
 -1.655347427519E+01 -1.661557397904E+01 -1.667677021252E+01 -1.673698274954E+01
 -1.679612967103E+01 -1.685412750902E+01 -1.691089141038E+01 -1.696633532006E+01
 -1.702037218277E+01 -1.707291416162E+01 -1.712387287102E+01 -1.717315962041E+01
 -1.722068566428E+01 -1.726636245321E+01 -1.731010187955E+01 -1.735181651101E+01
 -1.739141980512E+01 -1.742882629762E+01 -1.746395175841E+01 -1.749671331024E+01
 -1.752702950658E+01 -1.755482036783E+01 -1.758000737715E+01 -1.760251344045E+01
 -1.762226281727E+01 -1.763918103208E+01 -1.765319477695E+01 -1.766423181758E+01
 -1.767222091506E+01 -1.767709177413E+01 -1.767877502766E+01 -1.767720226398E+01
 -1.767230610125E+01 -1.766402030961E+01 -1.765227997921E+01 -1.763702172962E+01
 -1.761818395397E+01 -1.759570708985E+01 -1.756953390821E+01 -1.753960981073E+01
 -1.750588312643E+01 -1.746830539818E+01 -1.742683164996E+01 -1.738142062622E+01
 -1.733203499479E+01 -1.727864150571E+01 -1.722121109862E+01 -1.715971895317E+01
 -1.709414447793E+01 -1.702447123602E+01 -1.695068680795E+01 -1.687278259571E+01
 -1.679075357532E+01 -1.670459800899E+01 -1.661431713129E+01 -1.651991482726E+01
 -1.642139732319E+01 -1.631877291274E+01 -1.621205174336E+01 -1.610124568830E+01
 -1.598636833053E+01 -1.586743508483E+01 -1.574446348396E+01 -1.561747365472E+01
 -1.548648900901E+01 -1.535153717460E+01 -1.521265118963E+01 -1.506987098402E+01
 -1.492324516984E+01 -1.477283316086E+01 -1.461870763893E+01 -1.446095738088E+01
 -1.429969045450E+01 -1.413503778488E+01 -1.396715708282E+01 -1.379623711540E+01
 -1.362250228368E+01 -1.344621745503E+01 -1.326769297651E+01 -1.308728977183E+01
 -1.290542439773E+01 -1.272257390649E+01 -1.253928033077E+01 -1.235615457605E+01
 -1.217387947645E+01 -1.199321174343E+01 -1.181498251657E+01 -1.164009621462E+01