<preamble>

<basis_specs>
===============================================================================
I.2                  Z=  53    Mass=  126.90        Charge= 0.17977+309
Lmxo=2 Lmxkb= 2    BasisType=split      Semic=F
L=0  Nsemic=0  Cnfigmx=5
          i=1  nzeta=2  polorb=0  (5s)
            splnorm:   0.15000    
               vcte:    40.000    
               rinn:    4.4036    
               qcoe:    0.0000    
               qyuk:    0.0000    
               qwid:   0.10000E-01
                rcs:    4.8880      3.4209    
            lambdas:    1.0000      1.0000    
L=1  Nsemic=0  Cnfigmx=5
          i=1  nzeta=2  polorb=1  (5p)  (to be polarized perturbatively)
            splnorm:   0.15000    
               vcte:    40.000    
               rinn:    5.5392    
               qcoe:    0.0000    
               qyuk:    0.0000    
               qwid:   0.10000E-01
                rcs:    6.1546      4.3559    
            lambdas:    1.0000      1.0000    
L=2  Nsemic=0  Cnfigmx=5
          i=1  nzeta=0  polorb=0  (5d)  (perturbative polarization orbital) (from 5p)
-------------------------------------------------------------------------------
L=0  Nkbl=1  erefs: 0.17977+309
L=1  Nkbl=1  erefs: 0.17977+309
L=2  Nkbl=1  erefs: 0.17977+309
===============================================================================
</basis_specs>

<pseudopotential_header>
 I  ps nrl pcec
 ONCVPSP-3.2018-03-01Hamann's oncvpsp                        
 5s 2.00  r= 2.02/5p 5.00  r= 2.17/5d 0.00  r= 2.28/                    5s:5p:
</pseudopotential_header>
</preamble>
I                             # Symbol
I.2                           # Label
   53                         # Atomic number
     7.00000000000                             # Valence charge
     126.900000000        # Mass 
     41.1866255893        # Self energy 
   2   5                      # Lmax for basis, no. of nl orbitals 
   2   6                      # Lmax for projectors, no. of nl KB projectors
# PAOs:__________________________
  0  5  1  0  2.000000   #orbital l, n, z, is_polarized, population
 500    0.9795619210762474E-02     4.888013986170474     # npts, delta, cutoff
     0.000000000000000        0.7836511480270436E-01
    0.9795619210762474E-02    0.7844044437157931E-01
    0.1959123842152495E-01    0.7866906944717041E-01
    0.2938685763228742E-01    0.7904977175788311E-01
    0.3918247684304989E-01    0.7958204192576439E-01
    0.4897809605381237E-01    0.8026516911571153E-01
    0.5877371526457484E-01    0.8109824288491881E-01
    0.6856933447533732E-01    0.8208015572569258E-01
    0.7836495368609979E-01    0.8320960617541853E-01
    0.8816057289686226E-01    0.8448510246913923E-01
    0.9795619210762474E-01    0.8590496671858283E-01
    0.1077518113183872        0.8746733960144597E-01
    0.1175474305291497        0.8917018554333631E-01
    0.1273430497399121        0.9101129837314074E-01
    0.1371386689506746        0.9298830743091702E-01
    0.1469342881614371        0.9509868410580406E-01
    0.1567299073721996        0.9733974877991083E-01
    0.1665255265829620        0.9970867815270784E-01
    0.1763211457937245        0.1022025129191025    
    0.1861167650044870        0.1048181657731412    
    0.1959123842152495        0.1075524297081567    
    0.2057080034260119        0.1104019865831639    
    0.2155036226367744        0.1133634159244103    
    0.2252992418475369        0.1164332039302168    
    0.2350948610582994        0.1196077526465903    
    0.2448904802690618        0.1228833892805725    
    0.2546860994798243        0.1262563756178868    
    0.2644817186905868        0.1297229175111937    
    0.2742773379013493        0.1332791744051203    
    0.2840729571121117        0.1369212688642418    
    0.2938685763228742        0.1406452960703185    
    0.3036641955336367        0.1444473332553535    
    0.3134598147443992        0.1483234490374404    
    0.3232554339551617        0.1522697126268757    
    0.3330510531659241        0.1562822028706801    
    0.3428466723766866        0.1603570171044210    
    0.3526422915874490        0.1644902797811401    
    0.3624379107982115        0.1686781508481861    
    0.3722335300089740        0.1729168338438740    
    0.3820291492197365        0.1772025836871275    
    0.3918247684304990        0.1815317141345762    
    0.4016203876412614        0.1859006048810193    
    0.4114160068520239        0.1903057082806754    
    0.4212116260627864        0.1947435556682411    
    0.4310072452735488        0.1992107632604618    
    0.4408028644843113        0.2037040376206649    
    0.4505984836950738        0.2082201806705204    
    0.4603941029058363        0.2127560942351608    
    0.4701897221165987        0.2173087841097148    
    0.4799853413273612        0.2218753636372604    
    0.4897809605381237        0.2264530567902012    
    0.4995765797488861        0.2310392007490798    
    0.5093721989596486        0.2356312479748751    
    0.5191678181704111        0.2402267677728714    
    0.5289634373811736        0.2448234473482230    
    0.5387590565919360        0.2494190923553773    
    0.5485546758026986        0.2540116269455155    
    0.5583502950134610        0.2585990933181825    
    0.5681459142242234        0.2631796507852181    
    0.5779415334349860        0.2677515743570150    
    0.5877371526457484        0.2723132528630123    
    0.5975327718565109        0.2768631866201299    
    0.6073283910672733        0.2813999846646033    
    0.6171240102780359        0.2859223615643540    
    0.6269196294887983        0.2904291338306414    
    0.6367152486995608        0.2949192159492476    
    0.6465108679103233        0.2993916160528916    
    0.6563064871210857        0.3038454312578896    
    0.6661021063318482        0.3082798426893323    
    0.6758977255426106        0.3126941102201720    
    0.6856933447533732        0.3170875669506266    
    0.6954889639641356        0.3214596134552533    
    0.7052845831748981        0.3258097118257938    
    0.7150802023856606        0.3301373795386147    
    0.7248758215964231        0.3344421831760841    
    0.7346714408071855        0.3387237320316975    
    0.7444670600179480        0.3429816716290414    
    0.7542626792287105        0.3472156771848818    
    0.7640582984394729        0.3514254470467336    
    0.7738539176502354        0.3556106961351772    
    0.7836495368609979        0.3597711494210173    
    0.7934451560717604        0.3639065354670551    
    0.8032407752825228        0.3680165800638108    
    0.8130363944932854        0.3721009999879721    
    0.8228320137040478        0.3761594969116912    
    0.8326276329148102        0.3801917514900307    
    0.8424232521255728        0.3841974176530103    
    0.8522188713363352        0.3881761171276536    
    0.8620144905470977        0.3921274342143731    
    0.8718101097578601        0.3960509108408060    
    0.8816057289686227        0.3999460419149306    
    0.8914013481793851        0.4038122709979134    
    0.9011969673901475        0.4076489863156890    
    0.9109925866009101        0.4114555171267289    
    0.9207882058116725        0.4152311304618707    
    0.9305838250224350        0.4189750282504253    
    0.9403794442331974        0.4226863448450524    
    0.9501750634439600        0.4263641449561568    
    0.9599706826547224        0.4300074220047613    
    0.9697663018654848        0.4336150969009753    
    0.9795619210762474        0.4371860172533465    
    0.9893575402870098        0.4407189570125118    
    0.9991531594977723        0.4442126165506951    
     1.008948778708535        0.4476656231767220    
     1.018744397919297        0.4510765320843830    
     1.028540017130060        0.4544438277300987    
     1.038335636340822        0.4577659256340340    
     1.048131255551585        0.4610411745970238    
     1.057926874762347        0.4642678593238967    
     1.067722493973110        0.4674442034420930    
     1.077518113183872        0.4705683729028011    
     1.087313732394634        0.4736384797502568    
     1.097109351605397        0.4766525862432883    
     1.106904970816160        0.4796087093117562    
     1.116700590026922        0.4825048253291402    
     1.126496209237684        0.4853388751812149    
     1.136291828448447        0.4881087696095561    
     1.146087447659209        0.4908123948074871    
     1.155883066869972        0.4934476182450594    
     1.165678686080734        0.4960122946987195    
     1.175474305291497        0.4985042724605139    
     1.185269924502259        0.5009213997009574    
     1.195065543713022        0.5032615309590885    
     1.204861162923784        0.5055225337327505    
     1.214656782134547        0.5077022951417476    
     1.224452401345309        0.5097987286362724    
     1.234248020556072        0.5118097807228477    
     1.244043639766834        0.5137334376799928    
     1.253839258977597        0.5155677322359091    
     1.263634878188359        0.5173107501806767    
     1.273430497399122        0.5189606368857621    
     1.283226116609884        0.5205156037040645    
     1.293021735820647        0.5219739342242518    
     1.302817355031409        0.5233339903537838    
     1.312612974242171        0.5245942182057616    
     1.322408593452934        0.5257531537655722    
     1.332204212663696        0.5268094283142584    
     1.341999831874459        0.5277617735865558    
     1.351795451085221        0.5286090266426668    
     1.361591070295984        0.5293501344340430    
     1.371386689506746        0.5299841580447278    
     1.381182308717509        0.5305102765911456    
     1.390977927928271        0.5309277907646738    
     1.400773547139034        0.5312361260027733    
     1.410569166349796        0.5314348352760032    
     1.420364785560559        0.5315236014798304    
     1.430160404771321        0.5315022394217299    
     1.439956023982084        0.5313706973957615    
     1.449751643192846        0.5311290583384516    
     1.459547262403609        0.5307775405615189    
     1.469342881614371        0.5303164980587042    
     1.479138500825133        0.5297464203856441    
     1.488934120035896        0.5290679321134748    
     1.498729739246659        0.5282817918585283    
     1.508525358457421        0.5273888908921802    
     1.518320977668183        0.5263902513365857    
     1.528116596878946        0.5252870239536207    
     1.537912216089708        0.5240804855360369    
     1.547707835300471        0.5227720359112613    
     1.557503454511233        0.5213631945699264    
     1.567299073721996        0.5198555969325205    
     1.577094692932758        0.5182509904076525    
     1.586890312143521        0.5165512302083095    
     1.596685931354283        0.5147582731048289    
     1.606481550565046        0.5128741742124581    
     1.616277169775808        0.5109010810474901    
     1.626072788986571        0.5088412279770346    
     1.635868408197333        0.5066969304371921    
     1.645664027408096        0.5044705789408462    
     1.655459646618858        0.5021646328982230    
     1.665255265829620        0.4997816142740430    
     1.675050885040383        0.4973241011055811    
     1.684846504251146        0.4947947209064160    
     1.694642123461908        0.4921961439809638    
     1.704437742672670        0.4895310766751133    
     1.714233361883433        0.4868022545884103    
     1.724028981094195        0.4840124357732269    
     1.733824600304958        0.4811643939463135    
     1.743620219515720        0.4782609117378847    
     1.753415838726483        0.4753047740031328    
     1.763211457937245        0.4722987612206632    
     1.773007077148008        0.4692456430018067    
     1.782802696358770        0.4661481717343282    
     1.792598315569533        0.4630090763830709    
     1.802393934780295        0.4598310564697846    
     1.812189553991058        0.4566167762528617    
     1.821985173201820        0.4533688591276223    
     1.831780792412583        0.4500898822658130    
     1.841576411623345        0.4467823715128574    
     1.851372030834108        0.4434487965594031    
     1.861167650044870        0.4400915664031071    
     1.870963269255632        0.4367130251150731    
     1.880758888466395        0.4333154479237952    
     1.890554507677157        0.4299010376289136    
     1.900350126887920        0.4264719213542280    
     1.910145746098682        0.4230301476500391    
     1.919941365309445        0.4195776839509965    
     1.929736984520207        0.4161164143961719    
     1.939532603730970        0.4126481380155769    
     1.949328222941732        0.4091745672856127    
     1.959123842152495        0.4056973269987698    
     1.968919461363257        0.4022179534874166    
     1.978715080574020        0.3987378947807900    
     1.988510699784782        0.3952585112488046    
     1.998306318995545        0.3917810742811241    
     2.008101938206307        0.3883067646620768    
     2.017897557417069        0.3848366754948032    
     2.027693176627832        0.3813718225787249    
     2.037488795838594        0.3779131570842359    
     2.047284415049357        0.3744615786452444    
     2.057080034260120        0.3710179471988693    
     2.066875653470882        0.3675830902550882    
     2.076671272681645        0.3641578030915522    
     2.086466891892407        0.3607428469542015    
     2.096262511103169        0.3573389495244788    
     2.106058130313932        0.3539468065781481    
     2.115853749524694        0.3505670833133654    
     2.125649368735457        0.3472004151698386    
     2.135444987946219        0.3438474087391762    
     2.145240607156982        0.3405086426417486    
     2.155036226367744        0.3371846683883449    
     2.164831845578507        0.3338760111465900    
     2.174627464789269        0.3305831706401464    
     2.184423084000032        0.3273066219082582    
     2.194218703210794        0.3240468160781260    
     2.204014322421556        0.3208041811258756    
     2.213809941632319        0.3175791227629991    
     2.223605560843081        0.3143720250543020    
     2.233401180053844        0.3111832511018129    
     2.243196799264606        0.3080131437257220    
     2.252992418475369        0.3048620261358882    
     2.262788037686132        0.3017302025453391    
     2.272583656896894        0.2986179587622680    
     2.282379276107656        0.2955255628594700    
     2.292174895318419        0.2924532657860471    
     2.301970514529181        0.2894013019331372    
     2.311766133739944        0.2863698896776143    
     2.321561752950706        0.2833592319128039    
     2.331357372161469        0.2803695165871100    
     2.341152991372231        0.2774009172186789    
     2.350948610582994        0.2744535933977819    
     2.360744229793756        0.2715276912691327    
     2.370539849004519        0.2686233440024997    
     2.380335468215281        0.2657406722492922    
     2.390131087426044        0.2628797845869373    
     2.399926706636806        0.2600407779502246    
     2.409722325847568        0.2572237380501294    
     2.419517945058331        0.2544287397803127    
     2.429313564269093        0.2516558476117524    
     2.439109183479856        0.2489051159758111    
     2.448904802690619        0.2461765896360095    
     2.458700421901381        0.2434703040488164    
     2.468496041112143        0.2407862857137233    
     2.478291660322906        0.2381245525129333    
     2.488087279533668        0.2354851140408675    
     2.497882898744431        0.2328679719238015    
     2.507678517955193        0.2302731201298617    
     2.517474137165956        0.2277005452696554    
     2.527269756376718        0.2251502268877751    
     2.537065375587481        0.2226221377454562    
     2.546860994798243        0.2201162440945726    
     2.556656614009006        0.2176325059432155    
     2.566452233219768        0.2151708773131382    
     2.576247852430531        0.2127313064892105    
     2.586043471641293        0.2103137362611194    
     2.595839090852055        0.2079181041575862    
     2.605634710062818        0.2055443426732390    
     2.615430329273580        0.2031923794883134    
     2.625225948484343        0.2008621376815168    
     2.635021567695105        0.1985535359361153    
     2.644817186905868        0.1962664887394247    
     2.654612806116631        0.1940009065760183    
     2.664408425327393        0.1917566961147163    
     2.674204044538155        0.1895337603895095    
     2.683999663748918        0.1873319989746963    
     2.693795282959680        0.1851513081543378    
     2.703590902170443        0.1829915810861480    
     2.713386521381205        0.1808527079600208    
     2.723182140591968        0.1787345761514024    
     2.732977759802730        0.1766370703695563    
     2.742773379013493        0.1745600728008457    
     2.752568998224255        0.1725034632473620    
     2.762364617435018        0.1704671192608499    
     2.772160236645780        0.1684509162720525    
     2.781955855856542        0.1664547277157848    
     2.791751475067305        0.1644784251517316    
     2.801547094278067        0.1625218783810678    
     2.811342713488830        0.1605849555590689    
     2.821138332699592        0.1586675233039119    
     2.830933951910355        0.1567694468016499    
     2.840729571121118        0.1548905899074138    
     2.850525190331880        0.1530308152432422    
     2.860320809542642        0.1511899842923619    
     2.870116428753405        0.1493679574900745    
     2.879912047964167        0.1475645943114288    
     2.889707667174930        0.1457797533557875    
     2.899503286385692        0.1440132924282892    
     2.909298905596455        0.1422650686182348    
     2.919094524807217        0.1405349383747862    
     2.928890144017980        0.1388227575797693    
     2.938685763228742        0.1371283816177275    
     2.948481382439505        0.1354516654433741    
     2.958277001650267        0.1337924636465632    
     2.968072620861030        0.1321506305147421    
     2.977868240071792        0.1305260200928975    
     2.987663859282554        0.1289184862413646    
     2.997459478493317        0.1273278826912957    
     3.007255097704079        0.1257540630979413    
     3.017050716914842        0.1241968810917562    
     3.026846336125604        0.1226561903276044    
     3.036641955336367        0.1211318445318920    
     3.046437574547129        0.1196236975477079    
     3.056233193757892        0.1181316033781916    
     3.066028812968654        0.1166554162281117    
     3.075824432179417        0.1151949905436665    
     3.085620051390179        0.1137501810504883    
     3.095415670600941        0.1123208427901781    
     3.105211289811704        0.1109068311551667    
     3.115006909022467        0.1095080019220559    
     3.124802528233229        0.1081242112833616    
     3.134598147443992        0.1067553158780202    
     3.144393766654754        0.1054011728203746    
     3.154189385865517        0.1040616397278234    
     3.163985005076279        0.1027365747471204    
     3.173780624287041        0.1014258365795424    
     3.183576243497804        0.1001292845047462    
     3.193371862708566        0.9884677840342673E-01
     3.203167481919329        0.9757817877885192E-01
     3.212963101130091        0.9632334677735341E-01
     3.222758720340854        0.9508214420770199E-01
     3.232554339551616        0.9385443355940941E-01
     3.242349958762379        0.9264007802008996E-01
     3.252145577973141        0.9143894149187577E-01
     3.261941197183904        0.9025088860687860E-01
     3.271736816394666        0.8907578474170438E-01
     3.281532435605429        0.8791349603116755E-01
     3.291328054816191        0.8676388938116519E-01
     3.301123674026954        0.8562683248073051E-01
     3.310919293237716        0.8450219381326177E-01
     3.320714912448479        0.8338984266706119E-01
     3.330510531659241        0.8228964914514079E-01
     3.340306150870004        0.8120148417431894E-01
     3.350101770080766        0.8012521951361162E-01
     3.359897389291528        0.7906072776201313E-01
     3.369693008502291        0.7800788236565372E-01
     3.379488627713053        0.7696655762434063E-01
     3.389284246923816        0.7593662869750104E-01
     3.399079866134578        0.7491797160958479E-01
     3.408875485345341        0.7391046325494112E-01
     3.418671104556103        0.7291398140216096E-01
     3.428466723766866        0.7192840469791942E-01
     3.438262342977628        0.7095361267033486E-01
     3.448057962188391        0.6998948573189172E-01
     3.457853581399153        0.6903590518190075E-01
     3.467649200609916        0.6809275320853990E-01
     3.477444819820678        0.6715991289047810E-01
     3.487240439031440        0.6623726819812432E-01
     3.497036058242203        0.6532470399448881E-01
     3.506831677452966        0.6442210603568546E-01
     3.516627296663728        0.6352936097109189E-01
     3.526422915874491        0.6264635634317295E-01
     3.536218535085253        0.6177298058699027E-01
     3.546014154296016        0.6090912302940332E-01
     3.555809773506778        0.6005467388799262E-01
     3.565605392717540        0.5920952426968982E-01
     3.575401011928303        0.5837356616914379E-01
     3.585196631139065        0.5754669246683511E-01
     3.594992250349828        0.5672879692695113E-01
     3.604787869560590        0.5591977419503489E-01
     3.614583488771353        0.5511951979538825E-01
     3.624379107982115        0.5432793012828369E-01
     3.634174727192878        0.5354490246696305E-01
     3.643970346403640        0.5277033495448072E-01
     3.653765965614403        0.5200412660030806E-01
     3.663561584825165        0.5124617727679801E-01
     3.673357204035927        0.5049638771547420E-01
     3.683152823246690        0.4975465950318236E-01
     3.692948442457452        0.4902089507807788E-01
     3.702744061668215        0.4829499772546003E-01
     3.712539680878978        0.4757687157348967E-01
     3.722335300089740        0.4686642158876957E-01
     3.732130919300503        0.4616355357184516E-01
     3.741926538511265        0.4546817415252490E-01
     3.751722157722027        0.4478019078513643E-01
     3.761517776932790        0.4409951174366902E-01
     3.771313396143552        0.4342604611683800E-01
     3.781109015354315        0.4275970380305116E-01
     3.790904634565077        0.4210039550527074E-01
     3.800700253775840        0.4144803272581941E-01
     3.810495872986602        0.4080252776109741E-01
     3.820291492197365        0.4016379369627255E-01
     3.830087111408127        0.3953174439984315E-01
     3.839882730618890        0.3890629451817617E-01
     3.849678349829652        0.3828735946998284E-01
     3.859473969040415        0.3767485544074154E-01
     3.869269588251177        0.3706869937709529E-01
     3.879065207461939        0.3646880898115738E-01
     3.888860826672702        0.3587510270480926E-01
     3.898656445883465        0.3528749974394940E-01
     3.908452065094227        0.3470592003272160E-01
     3.918247684304990        0.3413028423770052E-01
     3.928043303515752        0.3356051375203939E-01
     3.937838922726514        0.3299653068960508E-01
     3.947634541937277        0.3243825787908151E-01
     3.957430161148039        0.3188561885807231E-01
     3.967225780358802        0.3133853786715691E-01
     3.977021399569564        0.3079693984394392E-01
     3.986817018780327        0.3026075041710922E-01
     3.996612637991089        0.2972989590041903E-01
     4.006408257201851        0.2920430328675912E-01
     4.016203876412614        0.2868390024212936E-01
     4.025999495623377        0.2816861509964822E-01
     4.035795114834139        0.2765837685354884E-01
     4.045590734044902        0.2715311515317040E-01
     4.055386353255664        0.2665276029695647E-01
     4.065181972466426        0.2615724322643786E-01
     4.074977591677189        0.2566649552022717E-01
     4.084773210887952        0.2518044938801177E-01
     4.094568830098714        0.2469903766455150E-01
     4.104364449309476        0.2422219380368339E-01
     4.114160068520239        0.2374985187232571E-01
     4.123955687731002        0.2328194654449392E-01
     4.133751306941764        0.2281841309532254E-01
     4.143546926152526        0.2235918739509586E-01
     4.153342545363289        0.2190420590328875E-01
     4.163138164574051        0.2145340566261651E-01
     4.172933783784813        0.2100672429309668E-01
     4.182729402995577        0.2056409998612206E-01
     4.192525022206339        0.2012547149854809E-01
     4.202320641417101        0.1969077814678991E-01
     4.212116260627863        0.1925995980093671E-01
     4.221911879838626        0.1883295687887864E-01
     4.231707499049389        0.1840971034044900E-01
     4.241503118260151        0.1799016168158211E-01
     4.251298737470914        0.1757425292848636E-01
     4.261094356681676        0.1716192663183526E-01
     4.270889975892438        0.1675312586097314E-01
     4.280685595103201        0.1634779419814018E-01
     4.290481214313964        0.1594587573271352E-01
     4.300276833524726        0.1554731505546822E-01
     4.310072452735488        0.1515205725285466E-01
     4.319868071946251        0.1476004790129514E-01
     4.329663691157013        0.1437123306150062E-01
     4.339459310367776        0.1398555927280412E-01
     4.349254929578538        0.1360297354751767E-01
     4.359050548789301        0.1322342336530701E-01
     4.368846168000063        0.1284685666758429E-01
     4.378641787210825        0.1247322185192375E-01
     4.388437406421589        0.1210246776649643E-01
     4.398233025632351        0.1173454370452593E-01
     4.408028644843113        0.1136939939876970E-01
     4.417824264053875        0.1100698501601187E-01
     4.427619883264638        0.1064725115158440E-01
     4.437415502475401        0.1029014882581413E-01
     4.447211121686163        0.9935629586834114E-02
     4.457006740896926        0.9583646822324866E-02
     4.466802360107688        0.9234161539163212E-02
     4.476597979318450        0.8887154988488615E-02
     4.486393598529212        0.8542645662099448E-02
     4.496189217739976        0.8200705361135241E-02
     4.505984836950738        0.7861470219747573E-02
     4.515780456161500        0.7525145172807775E-02
     4.525576075372263        0.7192002342908715E-02
     4.535371694583025        0.6862374759805095E-02
     4.545167313793788        0.6536647012053699E-02
     4.554962933004551        0.6215244238802123E-02
     4.564758552215313        0.5898620549955736E-02
     4.574554171426075        0.5587247643832393E-02
     4.584349790636837        0.5281604124188634E-02
     4.594145409847600        0.4982165814326334E-02
     4.603941029058363        0.4689397219133752E-02
     4.613736648269125        0.4403744185101924E-02
     4.623532267479888        0.4125627742140550E-02
     4.633327886690650        0.3855439069694354E-02
     4.643123505901412        0.3593535505740598E-02
     4.652919125112175        0.3340237505068102E-02
     4.662714744322938        0.3095826448862375E-02
     4.672510363533700        0.2860543208227086E-02
     4.682305982744462        0.2634587367883271E-02
     4.692101601955225        0.2418117021646260E-02
     4.701897221165988        0.2211249057429513E-02
     4.711692840376750        0.2014059855883124E-02
     4.721488459587512        0.1826586332905493E-02
     4.731284078798275        0.1648827261848418E-02
     4.741079698009037        0.1480744815947440E-02
     4.750875317219799        0.1322266275052410E-02
     4.760670936430563        0.1173285842578632E-02
     4.770466555641325        0.1033666518016565E-02
     4.780262174852087        0.9032419659578460E-03
     4.790057794062849        0.7818183119840549E-03
     4.799853413273612        0.6691757742270102E-03
     4.809649032484375        0.5650699975785809E-03
     4.819444651695137        0.4692328754977418E-03
     4.829240270905900        0.3813724769748919E-03
     4.839035890116662        0.3011713318595083E-03
     4.848831509327424        0.2282814596368333E-03
     4.858627128538187        0.1623121840019976E-03
     4.868422747748950        0.1027992185560654E-03
     4.878218366959712        0.4911118621622586E-04
     4.888013986170474         0.000000000000000    
  0  5  2  0  0.000000   #orbital l, n, z, is_polarized, population
 500    0.6855560502688871E-02     3.420924690841746     # npts, delta, cutoff
     0.000000000000000       -0.3409645612915734    
    0.6855560502688871E-02   -0.3408887273900597    
    0.1371112100537774E-01   -0.3406556850261771    
    0.2056668150806661E-01   -0.3402674460452780    
    0.2742224201075548E-01   -0.3397242610445278    
    0.3427780251344435E-01   -0.3390264795583603    
    0.4113336301613323E-01   -0.3381745500291867    
    0.4798892351882209E-01   -0.3371690192523757    
    0.5484448402151097E-01   -0.3360105316371444    
    0.6170004452419984E-01   -0.3346998283225779    
    0.6855560502688871E-01   -0.3332377461579627    
    0.7541116552957758E-01   -0.3316252165513585    
    0.8226672603226645E-01   -0.3298632641891963    
    0.8912228653495533E-01   -0.3279530056294915    
    0.9597784703764418E-01   -0.3258956477713472    
    0.1028334075403331       -0.3236924862035708    
    0.1096889680430219       -0.3213449034354307    
    0.1165445285457108       -0.3188543670127639    
    0.1234000890483997       -0.3162224275228520    
    0.1302556495510885       -0.3134507164916714    
    0.1371112100537774       -0.3105409441773165    
    0.1439667705564663       -0.3074948972635658    