<?xml version="1.0" encoding="UTF-8" ?>
<psml version="1.1" energy_unit="hartree" length_unit="bohr"
 uuid="77368dd0-1d60-11e8-4489-ed0bfd3fe969"
 xmlns="http://esl.cecam.org/PSML/ns/1.1">
<provenance creator="ONCVPSP-3.3.0+psml-3.3.0-73 (scalar-relativistic)"
 date="2018-03-01">
<annotation action="semilocal-pseudopotential-generation"
 action-cont="projectors-generation" />
<input-file name="oncvpsp-input">
<![CDATA[# atsym z nc nv iexc psfile
I 53 9 2 -116133 upf
# n l f
1 0 2.0
2 0 2.0
2 1 6.0
3 0 2.0
3 1 6.0
3 2 10.0
4 0 2.0
4 1 6.0
4 2 10.0
5 0 2.0
5 1 5.0
# lmax
2
# l rc ep ncon nbas qcut
0 2.0 0.0 4 7 3.7
1 2.15 0.0 4 7 4.0
2 2.25 0.1 4 8 4.6
# lloc lpopt rc5 dvloc0
4 5 2.0 0.0
# l nproj debl
0 2 2.2
1 2 2.5
2 2 3.0
# icmod fcfact
3 4 1.34
# epsh1 epsh2 depsh
-12.0 12.0 0.02
# rlmax drl
6.0 0.01
 0
]]>
</input-file>
</provenance>
<pseudo-atom-spec atomic-label="I" atomic-number="53" z-pseudo="7"
 flavor="Hamann&apos;s oncvpsp" relativity="scalar" spin-dft="no"
 core-corrections="yes">
<annotation pseudo-energy="-11.5910267034" />
<exchange-correlation>
<annotation oncvpsp-xc-code="-116133" oncvpsp-xc-type="libxc-interface" />
<libxc-info number-of-functionals="2">
<functional name="Perdew, Burke &amp; Ernzerhof SOL (GGA)" type="exchange"
 id="116" />
<functional name="Perdew, Burke &amp; Ernzerhof SOL (GGA)" type="correlation"
 id="133" />
</libxc-info>
</exchange-correlation>
<valence-configuration total-valence-charge="7">
<shell n="5" l="s" occupation="2" />
<shell n="5" l="p" occupation="5" />
</valence-configuration>
</pseudo-atom-spec>
<grid npts="458">
<annotation type="sampled from oncvpsp log grid"
 recipe="r(i:1..N) = r1*exp(a*(i-1)) + r=0; resampled"
 recipe-cont="r1: scale; a: step" scale="0.943396226415E-05"
 step="0.119285708653E-01" delta="0.500000000000E-02" rmax="44.3807093700" />
<grid-data>
  0.000000000000E+00  5.007762362137E-03  1.012264367117E-02  1.518557966799E-02
  2.021918633661E-02  2.536257896747E-02  3.069598770929E-02  3.584497442415E-02
  4.087087281817E-02  4.604887635970E-02  5.126767823703E-02  5.640112283188E-02
  6.204858043287E-02  6.745209415252E-02  7.245669368045E-02  7.783260883245E-02
  8.360738932391E-02  8.874568074888E-02  9.419975812269E-02  9.998902882364E-02
  1.061340929567E-01  1.113209650746E-01  1.167613244709E-01  1.224675593053E-01
  1.284526631584E-01  1.347302646194E-01  1.413146583191E-01  1.464632781427E-01
  1.517994813805E-01  1.573301023957E-01  1.630622245526E-01  1.690031892890E-01
  1.751606055187E-01  1.815423593765E-01  1.881566243185E-01  1.950118715903E-01
  2.021168810766E-01  2.094807525460E-01  2.145384558354E-01  2.197182723131E-01
  2.250231502799E-01  2.304561092202E-01  2.360202415212E-01  2.417187142325E-01
  2.475547708689E-01  2.535317332568E-01  2.596530034246E-01  2.659220655392E-01
  2.723424878896E-01  2.789179249172E-01  2.856521192964E-01  2.925489040647E-01
  2.996122048045E-01  3.068460418773E-01  3.142545327123E-01  3.218418941502E-01
  3.296124448425E-01  3.375706077108E-01  3.457209124634E-01  3.540679981739E-01
  3.626166159218E-01  3.713716314966E-01  3.803380281675E-01  3.895209095195E-01
  3.989255023590E-01  4.085571596879E-01  4.184213637514E-01  4.234424201164E-01
  4.285237291578E-01  4.336660139077E-01  4.388700060746E-01  4.441364461475E-01
  4.494660835013E-01  4.548596765033E-01  4.603179926214E-01  4.658418085328E-01
  4.714319102352E-01  4.770890931580E-01  4.828141622759E-01  4.886079322232E-01
  4.944712274099E-01  5.004048821388E-01  5.064097407245E-01  5.124866576132E-01
  5.186364975046E-01  5.248601354746E-01  5.311584571003E-01  5.375323585855E-01
  5.439827468885E-01  5.505105398512E-01  5.571166663294E-01  5.638020663254E-01
  5.705676911213E-01  5.774145034147E-01  5.843434774557E-01  5.913555991852E-01
  5.984518663754E-01  6.056332887719E-01  6.129008882372E-01  6.202556988960E-01
  6.276987672828E-01  6.352311524901E-01  6.428539263200E-01  6.505681734359E-01
  6.583749915171E-01  6.662754914153E-01  6.742707973123E-01  6.823620468800E-01
  6.905503914426E-01  6.988369961399E-01  7.072230400936E-01  7.157097165747E-01
  7.242982331736E-01  7.329898119717E-01  7.417856897153E-01  7.506871179919E-01
  7.596953634078E-01  7.688117077687E-01  7.780374482620E-01  7.873738976411E-01
  7.968223844128E-01  8.063842530257E-01  8.160608640621E-01  8.258535944308E-01
  8.357638375640E-01  8.457930036147E-01  8.559425196581E-01  8.662138298940E-01
  8.766083958527E-01  8.871276966030E-01  8.977732289622E-01  9.085465077098E-01
  9.194490658023E-01  9.304824545919E-01  9.416482440470E-01  9.529480229756E-01
  9.643833992513E-01  9.759560000423E-01  9.876674720428E-01  9.995194817073E-01
  1.011513715488E+00  1.023651880074E+00  1.035935702635E+00  1.048366931066E+00
  1.060947334239E+00  1.073678702250E+00  1.086562846677E+00  1.099601600837E+00
  1.112796820047E+00  1.126150381888E+00  1.139664186470E+00  1.153340156708E+00
  1.167180238588E+00  1.181186401451E+00  1.195360638269E+00  1.209704965928E+00
  1.224221425519E+00  1.238912082625E+00  1.253779027617E+00  1.268824375948E+00
  1.284050268460E+00  1.299458871681E+00  1.315052378141E+00  1.330833006679E+00
  1.346803002759E+00  1.362964638792E+00  1.379320214458E+00  1.395872057031E+00
  1.412622521716E+00  1.429573991976E+00  1.446728879880E+00  1.464089626439E+00
  1.481658701956E+00  1.499438606379E+00  1.517431869656E+00  1.535641052092E+00
  1.554068744717E+00  1.572717569653E+00  1.591590180489E+00  1.610689262655E+00
  1.630017533807E+00  1.649577744213E+00  1.669372677143E+00  1.689405149269E+00
  1.709678011060E+00  1.730194147193E+00  1.750956476959E+00  1.771967954683E+00
  1.793231570139E+00  1.814750348981E+00  1.836527353168E+00  1.858565681406E+00
  1.880868469583E+00  1.903438891218E+00  1.926280157913E+00  1.949395519808E+00
  1.972788266046E+00  1.996461725238E+00  2.020419265941E+00  2.044664297132E+00
  2.069200268698E+00  2.094030671922E+00  2.119159039985E+00  2.144588948465E+00
  2.170324015847E+00  2.196367904037E+00  2.222724318885E+00  2.249397010712E+00
  2.276389774840E+00  2.303706452138E+00  2.331350929564E+00  2.359327140719E+00
  2.387639066408E+00  2.416290735204E+00  2.445286224027E+00  2.474629658715E+00
  2.504325214620E+00  2.534377117195E+00  2.564789642602E+00  2.595567118313E+00
  2.626713923733E+00  2.658234490817E+00  2.690133304707E+00  2.722414904364E+00
  2.755083883216E+00  2.788144889815E+00  2.821602628492E+00  2.855461860034E+00
  2.889727402355E+00  2.924404131183E+00  2.959496980757E+00  2.995010944526E+00
  3.030951075861E+00  3.067322488771E+00  3.104130358636E+00  3.141379922940E+00
  3.179076482015E+00  3.217225399799E+00  3.255832104597E+00  3.294902089852E+00
  3.334440914930E+00  3.374454205909E+00  3.414947656380E+00  3.455927028257E+00
  3.497398152596E+00  3.539366930427E+00  3.581839333592E+00  3.624821405595E+00
  3.668319262462E+00  3.712339093612E+00  3.756887162735E+00  3.801969808688E+00
  3.847593446392E+00  3.893764567749E+00  3.940489742562E+00  3.987775619473E+00
  4.035628926907E+00  4.084056474029E+00  4.133065151718E+00  4.182661933538E+00
  4.232853876741E+00  4.283648123262E+00  4.335051900741E+00  4.387072523550E+00
  4.439717393832E+00  4.492994002558E+00  4.546909930589E+00  4.601472849756E+00
  4.656690523953E+00  4.712570810241E+00  4.769121659963E+00  4.826351119883E+00
  4.884267333322E+00  4.942878541322E+00  5.002193083817E+00  5.062219400823E+00
  5.122966033633E+00  5.184441626037E+00  5.246654925549E+00  5.309614784656E+00
  5.373330162072E+00  5.437810124016E+00  5.503063845505E+00  5.569100611651E+00
  5.635929818990E+00  5.703560976818E+00  5.772003708540E+00  5.841267753043E+00
  5.911362966079E+00  5.982299321672E+00  6.054086913532E+00  6.126735956495E+00
  6.200256787972E+00  6.274659869428E+00  6.349955787861E+00  6.426155257316E+00
  6.503269120403E+00  6.581308349848E+00  6.660284050046E+00  6.740207458647E+00
  6.821089948151E+00  6.902943027529E+00  6.985778343859E+00  7.069607683985E+00
  7.154442976193E+00  7.240296291907E+00  7.327179847410E+00  7.415106005579E+00
  7.504087277646E+00  7.594136324978E+00  7.685265960878E+00  7.777489152408E+00
  7.870819022237E+00  7.965268850504E+00  8.060852076710E+00  8.157582301630E+00
  8.255473289250E+00  8.354538968721E+00  8.454793436346E+00  8.556250957582E+00
  8.658925969073E+00  8.762833080702E+00  8.867987077670E+00  8.974402922602E+00
  9.082095757673E+00  9.191080906765E+00  9.301373877647E+00  9.412990364178E+00
  9.525946248549E+00  9.640257603531E+00  9.755940694773E+00  9.873011983111E+00
  9.991488126908E+00  1.011138598443E+01  1.023272261624E+01  1.035551528764E+01
  1.047978147109E+01  1.060553884874E+01  1.073280531493E+01  1.086159897871E+01
  1.099193816645E+01  1.112384142445E+01  1.125732752154E+01  1.139241545180E+01
  1.152912443722E+01  1.166747393047E+01  1.180748361764E+01  1.194917342105E+01
  1.209256350210E+01  1.223767426413E+01  1.238452635529E+01  1.253314067156E+01
  1.268353835962E+01  1.283574081993E+01  1.298976970977E+01  1.314564694629E+01
  1.330339470964E+01  1.346303544616E+01  1.362459187151E+01  1.378808697397E+01
  1.395354401766E+01  1.412098654587E+01  1.429043838442E+01  1.446192364504E+01
  1.463546672878E+01  1.481109232952E+01  1.498882543748E+01  1.516869134272E+01
  1.535071563884E+01  1.553492422650E+01  1.572134331722E+01  1.590999943703E+01
  1.610091943027E+01  1.629413046344E+01  1.648966002900E+01  1.668753594935E+01
  1.688778638074E+01  1.709043981731E+01  1.729552509511E+01  1.750307139626E+01
  1.771310825301E+01  1.792566555205E+01  1.814077353867E+01  1.835846282113E+01
  1.857876437499E+01  1.880170954749E+01  1.902733006206E+01  1.925565802280E+01
  1.948672591908E+01  1.972056663011E+01  1.995721342967E+01  2.019669999082E+01
  2.043906039071E+01  2.068432911540E+01  2.093254106479E+01  2.118373155756E+01
  2.143793633625E+01  2.169519157229E+01  2.195553387116E+01  2.221900027761E+01
  2.248562828094E+01  2.275545582031E+01  2.302852129016E+01  2.330486354564E+01
  2.358452190819E+01  2.386753617108E+01  2.415394660514E+01  2.444379396440E+01
  2.473711949197E+01  2.503396492588E+01  2.533437250499E+01  2.563838497505E+01
  2.594604559475E+01  2.625739814188E+01  2.657248691959E+01  2.689135676262E+01
  2.721405304377E+01  2.754062168030E+01  2.787110914046E+01  2.820556245015E+01
  2.854402919955E+01  2.888655754994E+01  2.923319624054E+01  2.958399459543E+01
  2.993900253057E+01  3.029827056094E+01  3.066184980767E+01  3.102979200536E+01
  3.140214950943E+01  3.177897530354E+01  3.216032300718E+01  3.254624688327E+01
  3.293680184587E+01  3.333204346802E+01  3.373202798964E+01  3.413681232551E+01
  3.454645407342E+01  3.496101152230E+01  3.538054366057E+01  3.580511018449E+01
  3.623477150671E+01  3.666958876479E+01  3.710962382997E+01  3.755493931593E+01
  3.800559858772E+01  3.846166577077E+01  3.892320576002E+01  3.939028422914E+01
  3.986296763989E+01  4.034132325157E+01  4.082541913059E+01  4.131532416015E+01
  4.181110805007E+01  4.231284134668E+01  4.282059544284E+01  4.333444258815E+01
  4.385445589921E+01  4.438070937000E+01
</grid-data>
</grid>
<valence-charge total-charge="7" is-unscreening-charge="yes"
 rescaled-to-z-pseudo="no">
<radfunc>
<data npts="458">
  1.216842428169E-02  1.218134349251E-02  1.222122440411E-02  1.228729455218E-02
  1.237927013579E-02  1.250041277976E-02  1.265514450113E-02  1.283278985053E-02
  1.303312530129E-02  1.326754062295E-02  1.353279067580E-02  1.382233108530E-02
  1.417397143023E-02  1.454322865623E-02  1.491415523266E-02  1.534395073692E-02
  1.584225406795E-02  1.631793999714E-02  1.685659836231E-02  1.746691426034E-02
  1.815885417472E-02  1.877881715194E-02  1.946496811732E-02  2.022475858973E-02
  2.106654648377E-02  2.199971641777E-02  2.303481698004E-02  2.388511985058E-02
  2.480495593983E-02  2.580039787034E-02  2.687809150545E-02  2.804531333479E-02
  2.931003352324E-02  3.068098507539E-02  3.216773957019E-02  3.378078991178E-02
  3.553164052015E-02  3.743290534476E-02  3.879075470331E-02  4.022599513249E-02
  4.174332640101E-02  4.334774365069E-02  4.504455488993E-02  4.683939920530E-02
  4.873826566310E-02  5.074751286048E-02  5.287388907216E-02  5.512455292298E-02
  5.750709449891E-02  6.002955678940E-02  6.270045733195E-02  6.552880990584E-02
  6.852414609523E-02  7.169653651380E-02  7.505661145215E-02  7.861558067725E-02
  8.238525207915E-02  8.637804882566E-02  9.060702465041E-02  9.508587686499E-02
  9.982895665246E-02  1.048512761686E-01  1.101685119503E-01  1.157970041090E-01
  1.217537507735E-01  1.280563972417E-01  1.347232193076E-01  1.381990742523E-01
  1.417731002542E-01  1.454477477536E-01  1.492255010398E-01  1.531088769193E-01
  1.571004232630E-01  1.612027174313E-01  1.654183645772E-01  1.697499958248E-01
  1.742002663253E-01  1.787718531896E-01  1.834674533006E-01  1.882897810064E-01
  1.932415656977E-01  1.983255492739E-01  2.035444835021E-01  2.089011272756E-01
  2.143982437783E-01  2.200385975621E-01  2.258249515477E-01  2.317600639577E-01
  2.378466851915E-01  2.440875546560E-01  2.504853975628E-01  2.570429217057E-01
  2.637628142317E-01  2.706477384213E-01  2.777003304904E-01  2.849231964304E-01
  2.923189089000E-01  2.998900041824E-01  3.076389792216E-01  3.155682887491E-01
  3.236803425104E-01  3.319775026007E-01  3.404620809117E-01  3.491363366939E-01
  3.580024742281E-01  3.670626406009E-01  3.763189235662E-01  3.857733494756E-01
  3.954278812444E-01  4.052844163172E-01  4.153447845842E-01  4.256107461860E-01
  4.360839891360E-01  4.467661266718E-01  4.576586942324E-01  4.687631459430E-01
  4.800808504673E-01  4.916130860705E-01  5.033610347150E-01  5.153257749868E-01
  5.275082736295E-01  5.399093754379E-01  5.525297912398E-01  5.653700836667E-01
  5.784306503947E-01  5.917117045059E-01  6.052132516046E-01  6.189350632945E-01
  6.328766466096E-01  6.470372089719E-01  6.614156182388E-01  6.760103573978E-01
  6.908194734643E-01  7.058405201477E-01  7.210704938674E-01  7.365057627276E-01
  7.521419881023E-01  7.679740385325E-01  7.839958957114E-01  8.002005524175E-01
  8.165799023662E-01  8.331246220767E-01  8.498240450021E-01  8.666660283463E-01
  8.836368131935E-01  9.007208787982E-01  9.179007921422E-01  9.351570541380E-01
  9.524679441656E-01  9.698093649516E-01  9.871546901477E-01  1.004474617323E+00
  1.021737029455E+00  1.038906868371E+00  1.055946023969E+00  1.072813243365E+00
  1.089464064464E+00  1.105850778694E+00  1.121922427873E+00  1.137624840297E+00
  1.152900711185E+00  1.167689732529E+00  1.181928777197E+00  1.195552141748E+00
  1.208491851889E+00  1.220678033773E+00  1.232039353405E+00  1.242503525274E+00
  1.251997889983E+00  1.260450059082E+00  1.267788623568E+00  1.273943920563E+00
  1.278848850638E+00  1.282439736086E+00  1.284657208234E+00  1.285447109741E+00
  1.284761395739E+00  1.282559015825E+00  1.278806757329E+00  1.273480029080E+00
  1.266563564194E+00  1.258052020250E+00  1.247950455779E+00  1.236274663200E+00
  1.223051340391E+00  1.208318085891E+00  1.192123206329E+00  1.174525329037E+00
  1.155592817802E+00  1.135402995264E+00  1.114041181432E+00  1.091599563916E+00
  1.068175921658E+00  1.043872229838E+00  1.018793179101E+00  9.930446469782E-01
  9.667321631970E-01  9.399594131880E-01  9.128268254513E-01  8.854304587645E-01
  8.578617462926E-01  8.302077326910E-01  8.025503483004E-01  7.749653755237E-01
  7.475219343743E-01  7.202822892850E-01  6.933028671422E-01  6.666359581339E-01
  6.403300351668E-01  6.144294811007E-01  5.889747812298E-01  5.640025702546E-01
  5.395457192373E-01  5.156334339753E-01  4.922913654498E-01  4.695417309114E-01
  4.474034440128E-01  4.258922527880E-01  4.050208838812E-01  3.847991918213E-01
  3.652343120720E-01  3.463308166773E-01  3.280908713937E-01  3.105143932779E-01
  2.935992077733E-01  2.773412044200E-01  2.617344903894E-01  2.467715411238E-01
  2.324433474390E-01  2.187395585243E-01  2.056486203456E-01  1.931579090338E-01
  1.812538589041E-01  1.699220848266E-01  1.591474986918E-01  1.489144198802E-01
  1.392066795456E-01  1.300077186983E-01  1.213006800720E-01  1.130684938076E-01
  1.052939570344E-01  9.795980745783E-02  9.104879110526E-02  8.454372440204E-02
  7.842755078096E-02  7.268339204522E-02  6.729459472279E-02  6.224477166059E-02
  5.751783911442E-02  5.309804959232E-02  4.897002070734E-02  4.511876028959E-02
  4.152968799767E-02  3.818865365791E-02  3.508195254483E-02  3.219633780129E-02
  2.951903018126E-02  2.703772528265E-02  2.474059842465E-02  2.261630731200E-02
  2.065399261970E-02  1.884327662482E-02  1.717426000803E-02  1.563751694581E-02
  1.422408861423E-02  1.292547522695E-02  1.173362673253E-02  1.064093229885E-02
  9.640208715415E-03  8.724687845873E-03  7.888003264589E-03  7.124176210562E-03
  6.427600990510E-03  5.793029959825E-03  5.215558205594E-03  4.690608050016E-03
  4.213913485578E-03  3.781504645285E-03  3.389692402531E-03  3.035053185829E-03
  2.714414083993E-03  2.424838307572E-03  2.163611062604E-03  1.928225883288E-03
  1.716371461025E-03  1.525918998629E-03  1.354910110503E-03  1.201545282118E-03
  1.064172895500E-03  9.412788214417E-04  8.314765740088E-04  7.334980184370E-04
  6.461846198354E-04  5.684792170990E-04  4.994183040868E-04  4.381247983773E-04
  3.838012767101E-04  3.357236554901E-04  2.932352944140E-04  2.557415012930E-04
  2.227044164427E-04  1.936382555121E-04  1.681048902907E-04  1.457097478034E-04
  1.260980088411E-04  1.089510879488E-04  9.398337776948E-05  8.093924150725E-05
  6.959023810937E-05  5.973256556334E-05  5.118470846315E-05  4.378527670999E-05
  3.739102288238E-05  3.187502643978E-05  2.712503351656E-05  2.304194162342E-05
  1.953841910625E-05  1.653764972069E-05  1.397219316968E-05  1.178295292249E-05
  9.918243091217E-06  8.332946584696E-06  6.987757193507E-06  5.848498681788E-06
  4.885514374256E-06  4.073121128646E-06  3.389121975189E-06  2.814372084834E-06
  2.332393096196E-06  1.929031186817E-06  1.592154616653E-06  1.311386799957E-06
  1.077871275368E-06  8.840652425224E-07  7.235586164550E-07  5.909158182871E-07
  4.815377719679E-07  3.915418122874E-07  3.176574290540E-07  2.571359765463E-07
  2.076726664455E-07  1.673393368942E-07  1.345266506494E-07  1.078945220997E-07
  8.632970684797E-08  6.890960931945E-08  5.487147414836E-08  4.358622665945E-08
  3.453631732306E-08  2.729700535616E-08  2.152058837977E-08  1.692314892305E-08
  1.327344525645E-08  1.038362418364E-08  8.101477633573E-09  6.304003745027E-09
  4.892067165700E-09  3.785982996729E-09  2.921874667396E-09  2.248678450144E-09
  1.725686715383E-09  1.320538735544E-09  1.007582202323E-09  7.665409121573E-10
  5.814345653333E-10  4.397055483806E-10  3.315151367702E-10  2.491779507049E-10
  1.867088846462E-10  1.394612550578E-10  1.038386966409E-10  7.706649496400E-11
  5.701066824970E-11  4.203528572572E-11  3.089030547751E-11  2.262369218988E-11
  1.651278669660E-11  1.201088928750E-11  8.705824919778E-12  6.287912665012E-12
  4.525290671172E-12  3.244974070808E-12  2.318365357396E-12  1.650210359850E-12
  1.170210972780E-12  8.266788908857E-13  5.817514948246E-13  4.077988991174E-13
  2.847358324577E-13  1.980182110152E-13  1.371558126434E-13  9.461244475197E-14
  6.499589044255E-14  4.446368766345E-14  3.028901164016E-14  2.054483201552E-14
  1.387508049452E-14  9.329559376805E-15  6.245345421486E-15  4.161963111663E-15
  2.760977470533E-15  1.823167316093E-15  1.198298686756E-15  7.838881616930E-16
  5.103508834678E-16  3.306620521984E-16  2.131941280613E-16  1.367778849247E-16
  8.731329093215E-17  5.545521624121E-17  3.504091590876E-17  2.202686061239E-17
  1.377357400024E-17  8.567024873939E-18  5.299987656880E-18  3.261015794707E-18
  1.995425728223E-18  1.214210230458E-18  7.346804770048E-19  4.419972861659E-19
  2.643789667735E-19  1.572133764617E-19  9.293422978866E-20  5.460756600363E-20
  3.189235003723E-20  0.000000000000E+00  0.000000000000E+00  0.000000000000E+00
  0.000000000000E+00  0.000000000000E+00  0.000000000000E+00  0.000000000000E+00
  0.000000000000E+00  0.000000000000E+00  0.000000000000E+00  0.000000000000E+00
  0.000000000000E+00  0.000000000000E+00  0.000000000000E+00  0.000000000000E+00
  0.000000000000E+00  0.000000000000E+00  0.000000000000E+00  0.000000000000E+00
  0.000000000000E+00  0.000000000000E+00  0.000000000000E+00  0.000000000000E+00
  0.000000000000E+00  0.000000000000E+00  0.000000000000E+00  0.000000000000E+00
  0.000000000000E+00  0.000000000000E+00  0.000000000000E+00  0.000000000000E+00
  0.000000000000E+00  0.000000000000E+00
</data>
</radfunc>
</valence-charge>
<pseudocore-charge matching-radius="1.51743186966"
 number-of-continuous-derivatives="4">
<annotation model-charge-form="Teter function with specified parameters" />
<radfunc>
<data npts="291">
  5.173141709146E+00  5.173042574722E+00  5.172736655135E+00  5.172230185631E+00
  5.171525845222E+00  5.170599403095E+00  5.169418154129E+00  5.168064817838E+00
  5.166542236470E+00  5.164765460514E+00  5.162761170672E+00  5.160580766913E+00
  5.157943007007E+00  5.155185072960E+00  5.152426831204E+00  5.149245828227E+00
  5.145577571355E+00  5.142095254369E+00  5.138174400442E+00  5.133760160669E+00
  5.128790927600E+00  5.124369739306E+00  5.119509979234E+00  5.114168595895E+00
  5.108298407101E+00  5.101847723766E+00  5.094759943759E+00  5.088988959866E+00
  5.082796617870E+00  5.076152696184E+00  5.069024889135E+00  5.061378676202E+00
  5.053177185115E+00  5.044381048880E+00  5.034948256865E+00  5.024834000201E+00
  5.013990511838E+00  5.002366901742E+00  4.994157811482E+00  4.985561088660E+00
  4.976559123835E+00  4.967133577168E+00  4.957265355237E+00  4.946934587906E+00
  4.936120605328E+00  4.924801915234E+00  4.912956180624E+00  4.900560198023E+00
  4.887589876473E+00  4.874020217453E+00  4.859825295951E+00  4.844978242905E+00
  4.829451229302E+00  4.813215452202E+00  4.796241123028E+00  4.778497458460E+00
  4.759952674323E+00  4.740573982895E+00  4.720327594086E+00  4.699178721003E+00
  4.677091590433E+00  4.654029458832E+00  4.629954634478E+00  4.604828506442E+00
  4.578611581145E+00  4.551263527269E+00  4.522743229881E+00  4.508030442767E+00
  4.493008854660E+00  4.477673136215E+00  4.462017923187E+00  4.446037819462E+00
  4.429727400297E+00  4.413081215787E+00  4.396093794563E+00  4.378759647722E+00
  4.361073273022E+00  4.343029159320E+00  4.324621791291E+00  4.305845654423E+00
  4.286695240290E+00  4.267165052142E+00  4.247249610786E+00  4.226943460798E+00
  4.206241177050E+00  4.185137371594E+00  4.163626700875E+00  4.141703873315E+00
  4.119363657263E+00  4.096600889319E+00  4.073410483047E+00  4.049787438088E+00
  4.025726849676E+00  4.001223918564E+00  3.976273961379E+00  3.950872421405E+00
  3.925014879796E+00  3.898697067245E+00  3.871914876089E+00  3.844664372878E+00
  3.816941811395E+00  3.788743646144E+00  3.760066546295E+00  3.730907410096E+00
  3.701263379752E+00  3.671131856756E+00  3.640510517693E+00  3.609397330480E+00
  3.577790571069E+00  3.545688840577E+00  3.513091082845E+00  3.479996602414E+00
  3.446405082893E+00  3.412316605712E+00  3.377731669233E+00  3.342651208191E+00
  3.307076613449E+00  3.271009752031E+00  3.234452987394E+00  3.197409199909E+00
  3.159881807515E+00  3.121874786483E+00  3.083392692255E+00  3.044440680310E+00
  3.005024526972E+00  2.965150650134E+00  2.924826129795E+00  2.884058728365E+00
  2.842856910637E+00  2.801229863367E+00  2.759187514345E+00  2.716740550892E+00
  2.673900437659E+00  2.630679433637E+00  2.587090608261E+00  2.543147856493E+00
  2.498865912765E+00  2.454260363645E+00  2.409347659101E+00  2.364145122229E+00
  2.318670957283E+00  2.272944255888E+00  2.226985001253E+00  2.180814070256E+00
  2.134453233222E+00  2.087925151244E+00  2.041253370882E+00  1.994462316065E+00
  1.947577277046E+00  1.900624396235E+00  1.853630650749E+00  1.806623831519E+00
  1.759632518800E+00  1.712686053923E+00  1.665814507159E+00  1.619048641546E+00
  1.572419872561E+00  1.525960223516E+00  1.479702276581E+00  1.433679119354E+00
  1.387924286899E+00  1.342471699214E+00  1.297355594102E+00  1.252610455443E+00
  1.208270936893E+00  1.164371781069E+00  1.120947734303E+00  1.078033457088E+00
  1.035663430378E+00  9.938718579228E-01  9.526925648978E-01  9.121588930827E-01
  8.723035929313E-01  8.331587128921E-01  7.947554863985E-01  7.571242169937E-01
  7.202941621022E-01  6.842934160109E-01  6.491487926691E-01  6.148857089667E-01
  5.815280691935E-01  5.490981514274E-01  5.176164966413E-01  4.871018013548E-01
  4.575708146904E-01  4.290382407212E-01  4.015166470204E-01  3.750163803352E-01
  3.495454903186E-01  3.251096622455E-01  3.017121596330E-01  2.793537776601E-01
  2.580328082490E-01  2.377450176256E-01  2.184836371184E-01  2.002393678833E-01
  1.830004001591E-01  1.667524475560E-01  1.514787967727E-01  1.371603730056E-01
  1.237758211808E-01  1.113016029821E-01  9.971210949152E-02  8.897978907982E-02
  7.907529000857E-02  6.996761701360E-02  6.162430094977E-02  5.401158038252E-02
  4.709459382002E-02  4.083758109180E-02  3.520409220098E-02  3.015720180947E-02
  2.565972736418E-02  2.167444874036E-02  1.816432717039E-02  1.509272114600E-02
  1.242359693322E-02  1.012173132529E-02  8.152904283144E-03  6.484079177262E-03
  5.083568451779E-03  3.921182681448E-03  2.968361185744E-03  2.198282600184E-03
  1.585954081323E-03  1.108278135495E-03  7.440964077355E-04  4.742101407938E-04
  2.813774078782E-04  1.502876286251E-04  6.751428687471E-05  2.144717119022E-05
  2.205844274329E-06  1.536404699412E-06  1.269392287752E-05  3.031320250816E-05
  5.027072915961E-05  6.954081062971E-05  8.604898234070E-05  9.852574027471E-05
  1.063635712256E-04  1.094800754615E-04  1.081897231824E-04  1.030864593685E-04
  9.493898072847E-05  8.460006537529E-05  7.293085510712E-05  6.074048851080E-05
  4.874097890831E-05  3.751674373195E-05  2.750774061265E-05  1.900476882322E-05
  1.215516944819E-05  6.976917691428E-06  3.378956355725E-06  1.185576573461E-06
  1.627111674168E-07  4.416307692853E-08  5.560362421125E-07  1.437954296779E-06
  2.460024091173E-06  3.434903776094E-06  4.224744179022E-06  4.743162209210E-06
  4.952751927365E-06  4.858921487631E-06  4.501045709751E-06  3.942033779680E-06
  3.257425628017E-06  2.525052423469E-06  1.816137177417E-06  1.188488092674E-06
  6.821726224890E-07  3.177801496194E-07  9.711263728516E-08  5.910867046105E-09
  1.805021626860E-08  1.005393172679E-07  2.186344390708E-07  3.404403245021E-07
  4.404941015267E-07  5.020047868787E-07  5.176232925242E-07  4.888204792703E-07
  4.241279515466E-07  3.366260713639E-07  2.411309790972E-07  1.515310175906E-07
  7.865645264923E-08  2.894771336974E-08  4.036974679473E-09
</data>
</radfunc>
</pseudocore-charge>
<semilocal-potentials set="scalar_relativistic">
<slps n="5" l="s" rc="2.02041926594" eref="-0.641220633150">
<radfunc>
<data npts="291">
  2.713400690143E+01  2.712331084598E+01  2.709034160568E+01  2.703588413636E+01
  2.696040932495E+01  2.686159002429E+01  2.673633601748E+01  2.659385054336E+01
  2.643482868642E+01  2.625095357333E+01  2.604569396740E+01  2.582495828580E+01
  2.556142256120E+01  2.528989774955E+01  2.502236259459E+01  2.471870085752E+01
  2.437485371563E+01  2.405454264607E+01  2.370081406016E+01  2.331108666953E+01
  2.288279493100E+01  2.251071720092E+01  2.211114983179E+01  2.168296763300E+01
  2.122516188406E+01  2.073687317003E+01  2.021742658189E+01  1.980711209263E+01
  1.937891349820E+01  1.893282435225E+01  1.846893788661E+01  1.798745533337E+01
  1.748869363219E+01  1.697309230309E+01  1.644121925916E+01  1.589377533460E+01
  1.533159731206E+01  1.475565925083E+01  1.436459905316E+01  1.396827662434E+01
  1.356708036476E+01  1.316142389960E+01  1.275174513614E+01  1.233850513310E+01
  1.192218678576E+01  1.150329333268E+01  1.108234669236E+01  1.065988564033E+01
  1.023646383927E+01  9.812647736709E+00  9.389014346390E+00  8.966148931124E+00
  8.544642605581E+00  8.125089878535E+00  7.708086154209E+00  7.294225212366E+00
  6.884096686251E+00  6.478283556612E+00  6.077359678686E+00  5.681887357388E+00
  5.292414983859E+00  4.909474744243E+00  4.533580408922E+00  4.165225207673E+00
  3.804879793274E+00  3.452990293092E+00  3.109976445200E+00  2.941921402276E+00
  2.776229812685E+00  2.612945937884E+00  2.452112067075E+00  2.293768466516E+00
  2.137953329399E+00  1.984702726188E+00  1.834050555283E+00  1.686028493882E+00
  1.540665948912E+00  1.397990007901E+00  1.258025389663E+00  1.120794394661E+00
  9.863168549584E-01  8.546100836108E-01  7.256888234382E-01  5.995651950648E-01
  4.762486441707E-01  3.557458879020E-01  2.380608604115E-01  1.231946575269E-01
  1.114548057564E-02 -9.809142057622E-02 -2.045238051736E-01 -3.081624997726E-01
 -4.090214568092E-01 -5.071178133036E-01 -6.024719494128E-01 -6.951075464865E-01
 -7.850516442156E-01 -8.723346963964E-01 -9.569906247568E-01 -1.039056870219E+00
 -1.118574440883E+00 -1.195587955940E+00 -1.270145684622E+00 -1.342299579211E+00
 -1.412105301040E+00 -1.479622238303E+00 -1.544913514413E+00 -1.608045985556E+00
 -1.669090225958E+00 -1.728120499345E+00 -1.785214714958E+00 -1.840454366404E+00
 -1.893924451602E+00 -1.945713371964E+00 -1.995912808988E+00 -2.044617576362E+00
 -2.091925445707E+00 -2.137936944130E+00 -2.182755121787E+00 -2.226485287751E+00
 -2.269234712643E+00 -2.311112296571E+00 -2.352228201206E+00 -2.392693445012E+00
 -2.432619460971E+00 -2.472117616455E+00 -2.511298695325E+00 -2.550272342698E+00
 -2.589146473387E+00 -2.628026645445E+00 -2.667015400878E+00 -2.706211576120E+00
 -2.745709585512E+00 -2.785598681639E+00 -2.825962197024E+00 -2.866876772306E+00
 -2.908411576659E+00 -2.950627526775E+00 -2.993576511312E+00 -3.037300628188E+00
 -3.081831442516E+00 -3.127189273353E+00 -3.173382517651E+00 -3.220407019997E+00
 -3.268245496738E+00 -3.316867023065E+00 -3.366226591426E+00 -3.416264749406E+00
 -3.466907324799E+00 -3.518065245167E+00 -3.569634458666E+00 -3.621495962292E+00
 -3.673515943156E+00 -3.725546037738E+00 -3.777423713491E+00 -3.828972776632E+00