Executable      : /home/hexu/.local/siesta_soc/bin/siesta
Version         : 5.1-MaX-33-gaf41def5c-dirty
Architecture    : x86_64
Compiler version: GNU-11.4.0
Compiler flags  : -fallow-argument-mismatch -O3 -march=native
Parallelisations: MPI
NetCDF support
NetCDF-4 support
NetCDF-4 MPI-IO support
Lua support
DFT-D3 support

Runtime information:
* Directory : /home/hexu/projects/test_anisotropy/CrI3/CrI3/scf/collinear
* Running on 16 nodes in parallel.
>> Start of run:  11-SEP-2024  11:22:16

                           *********************** 
                           *  WELCOME TO SIESTA  * 
                           *********************** 

 NOTE: Siesta V5 introduces some new defaults for basis-set generation
 NOTE: which might lead to slightly different numerical results.
 NOTE: Please see the manual for full details and compatibility measures.


reinit: Reading from standard input
reinit: Dumping input in INPUT_TMP.29571
************************** Dump of input data file ****************************
SystemName	siesta
SystemLabel	siesta
CDF.save	True
DFTU.FirstIteration	True
DM.NumberPulay	6
Diag.ParallelOverK	True
ElectronicTemperature	100 K
MaxSCFIterations	5000
MullikenInSCF	False
SCF.DM.Tolerance	0.0003
SCF.EDM.Tolerance	1e-1 eV
SCF.H.Tolerance	1e-2 eV
SCF.Mix.Spin	sum
SCF.Mixer.History	16
SCF.Mixer.Method	Pulay
SCF.Mixer.Weight	0.2
SCF.MustConverge	False
SCFMustConverge	False
SaveHS	True
WriteHirshfeldPop	True
WriteMullikenPop	1
WriteVoronoiPop	True
savehs.so	True
Spin	collinear
SpinPolarized	True	# Backwards compatibility.
XC.functional	GGA
XC.authors	PBEsol
MeshCutoff	8163.4158073101735	eV
PAO.EnergyShift	0.1	eV
NumberOfSpecies	2
NumberOfAtoms	8
%block ChemicalSpecieslabel
    1 24 Cr.1
    2 53 I.2
%endblock ChemicalSpecieslabel
%block PAO.BasisSizes
    Cr.1	DZP
    I.2	DZP
%endblock PAO.BasisSizes
LatticeConstant	1.0 Ang
%block LatticeVectors
    -6.012814379972 3.4715 0.0
    -6.012814379972 -3.4715 0.0
    0.0 0.0 12.999999999951
%endblock LatticeVectors
AtomicCoordinatesFormat	Ang
%block AtomicCoordinatesAndAtomicSpecies
    -4.008542919580443 0.0 6.499999996078847 1
    -8.017085839160973 0.0 6.5000000038721515 1
    -8.08994329709018 -2.2722690539771566 4.891332071253034 2
    -2.0771289230778693 -1.19923093570046 8.108667928697965 2
    -6.012814385330353 1.073038117929565 4.891332071253034 2
    -6.012814373411149 -1.0730381179295643 8.108667928697965 2
    -9.948499836264883 1.1992309360475915 4.891332071253034 2
    -3.9356854622525708 2.2722690536300245 8.108667928697965 2
%endblock AtomicCoordinatesAndAtomicSpecies
%block DM.InitSpin
    1 3.00000000000000
    2 3.00000000000000
%endblock DM.InitSpin
DM.UseSaveDM	True
#KPoint grid
%block kgrid_Monkhorst_Pack
     7       0       0  0.0
     0       7       0  0.0
     0       0       1  0.0
%endblock kgrid_Monkhorst_Pack
************************** End of input data file *****************************

reinit: -----------------------------------------------------------------------
reinit: System Name: siesta
reinit: -----------------------------------------------------------------------
reinit: System Label: siesta
reinit: -----------------------------------------------------------------------

NOTE on units for spin output: 
{S} is the spin magnetic moment, in units of the Bohr magneton,
assuming a g-factor for the electron spin of exactly 2.
The spin magnetic moment is then numerically equal to the charge inbalance,
in units of electrons, between the spin-up and -down channels.


initatom: Reading input for the pseudopotentials and atomic orbitals ----------
Species number:   1 Atomic number:   24 Label: Cr.1
Species number:   2 Atomic number:   53 Label: I.2

Ground state valence configuration (from tables):   4s01  4p00  3d05  4f00
Ground state valence configuration (from tables):   5s02  5p05  5d00  4f00

---- Processing specs for species: Cr.1
Reading pseudopotential information in PSML from:
  Cr.1.psml
PSML file version: 1.1
Using libxc ids:  116 133
GGA--PBEsol XC_GGA_X_PBE_SOL--XC_GGA_C_PBE_SOL ps
PSML uuid: b8968150-1d5f-11e8-4d69-b34aadbf136f
Semicore shell(s) with  8 electrons included in the valence for Cr.1

---- Processing specs for species: I.2
Reading pseudopotential information in PSML from:
  I.2.psml
PSML file version: 1.1
Using libxc ids:  116 133
GGA--PBEsol XC_GGA_X_PBE_SOL--XC_GGA_C_PBE_SOL ps
PSML uuid: 77368dd0-1d60-11e8-4489-ed0bfd3fe969
resizes: Read basis size for species Cr.1 = dzp                 
resizes: Read basis size for species I.2 = dzp                 

---- Pseudopotential check for Cr

Pseudized shells:
3s( 2.00) rc: 1.31
3p( 6.00) rc: 1.31
3d( 5.00) rc: 1.72
Valence configuration for ps generation: 3s:3p:3d:4s: Total charge:  14.000000
Semicore shell(s): 3s 3p
Fallback to non-perturbative polarization scheme for Cr.1
Please see the manual if this is not desired in principle

---- Pseudopotential check for I 

Pseudized shells:
5s( 2.00) rc: 2.02
5p( 5.00) rc: 2.17
5d( 0.00) rc: 2.28
Valence configuration for ps generation: 5s:5p: Total charge:   7.000000
For Cr.1, standard SIESTA heuristics set lmxkb to 3
 (one more than the basis l, including polarization orbitals).
Use PS.lmax or PS.KBprojectors blocks to override.
For I.2, standard SIESTA heuristics set lmxkb to 3
 (one more than the basis l, including polarization orbitals).
Use PS.lmax or PS.KBprojectors blocks to override.
Cr.1 pseudopotential only contains V_ls up to l=2 -- lmxkb reset.
I.2 pseudopotential only contains V_ls up to l=2 -- lmxkb reset.

<basis_specs>
===============================================================================
Cr.1                 Z=  24    Mass=  51.996        Charge= 0.17977+309
Lmxo=2 Lmxkb= 2    BasisType=split      Semic=T
L=0  Nsemic=1  Cnfigmx=4
          i=1  nzeta=1  polorb=0  (3s)  (semicore shell)
            splnorm:   0.15000    
               vcte:    40.000    
               rinn:  -0.90000    
               qcoe:    0.0000    
               qyuk:    0.0000    
               qwid:   0.10000E-01
                rcs:    0.0000    
            lambdas:    1.0000    
          i=2  nzeta=2  polorb=0  (4s)  (to be polarized non-perturbatively)
            splnorm:   0.15000    
               vcte:    40.000    
               rinn:  -0.90000    
               qcoe:    0.0000    
               qyuk:    0.0000    
               qwid:   0.10000E-01
                rcs:    0.0000      0.0000    
            lambdas:    1.0000      1.0000    
L=1  Nsemic=1  Cnfigmx=4
          i=1  nzeta=1  polorb=0  (3p)  (semicore shell)
            splnorm:   0.15000    
               vcte:    40.000    
               rinn:  -0.90000    
               qcoe:    0.0000    
               qyuk:    0.0000    
               qwid:   0.10000E-01
                rcs:    0.0000    
            lambdas:    1.0000    
          i=2  nzeta=1  polorb=0  (4p)  (non-perturbative polarization shell)
            splnorm:   0.15000    
               vcte:    40.000    
               rinn:  -0.90000    
               qcoe:    0.0000    
               qyuk:    0.0000    
               qwid:    0.0000    
                rcs:    0.0000    
            lambdas:    1.0000    
L=2  Nsemic=0  Cnfigmx=3
          i=1  nzeta=2  polorb=0  (3d)
            splnorm:   0.15000    
               vcte:    40.000    
               rinn:  -0.90000    
               qcoe:    0.0000    
               qyuk:    0.0000    
               qwid:   0.10000E-01
                rcs:    0.0000      0.0000    
            lambdas:    1.0000      1.0000    
-------------------------------------------------------------------------------
L=0  Nkbl=2  erefs: 0.17977+309 0.17977+309
L=1  Nkbl=2  erefs: 0.17977+309 0.17977+309
L=2  Nkbl=1  erefs: 0.17977+309
===============================================================================
</basis_specs>

Using PAO.SplitTailNorm
atom: Called for Cr.1                  (Z =  24)
Maximum radius (at nrval) set to   50.00000 8518

read_vps: Pseudopotential generation method:
read_vps: ONCVPSP-3.Hamann's oncvpsp                        
Valence charge in pseudo generation:   14.00000

read_vps: Pseudopotential includes a core correction:
read_vps: Pseudo-core for xc-correction

xc_check: Exchange-correlation functional:
xc_check: GGA PBEsol
Got Vlocal (oncv-fit) from psml data
Choosing vlocal chloc cutoff:  4.064833
qtot up to nchloc:   14.00006801
atom: Maximum radius for chlocal:    4.06483
atom: Maximum radius for r*vlocal+2*Zval:    4.06483
Reading KB projs from Cr.1 psml data
Using scalar-relativistic projectors in PSML file

PSML: Kleinman-Bylander projectors: 
   l= 0   rc=  1.322197   Ekb= 12.672237
   l= 0   rc=  1.322197   Ekb= -2.470906
   l= 1   rc=  1.322197   Ekb=  2.390944
   l= 1   rc=  1.322197   Ekb= -1.706926
   l= 2   rc=  1.738625   Ekb=-12.557577
   l= 2   rc=  1.740375   Ekb= -3.489071

PSML: Total number of  Kleinman-Bylander projectors:  18
atom: -------------------------------------------------------------------------

atom: SANKEY-TYPE ORBITALS:
atom: Selected multiple-zeta basis: split     

SPLIT: Orbitals with angular momentum L= 0

SPLIT: Basis orbitals for state 3s

SPLIT: PAO cut-off radius determined from an
SPLIT: energy shift=  0.007350 Ry
Split based on tail norm

   izeta = 1
                 lambda =    1.000000
                     rc =    2.683469
                 energy =   -5.414002
                kinetic =    2.653530
    potential(screened) =   -8.067532
       potential(ionic) =  -29.750763

SPLIT: Basis orbitals for state 4s

SPLIT: PAO cut-off radius determined from an
SPLIT: energy shift=  0.007350 Ry
Split based on tail norm

   izeta = 1
                 lambda =    1.000000
                     rc =    7.764350
                 energy =   -0.307441
                kinetic =    0.767226
    potential(screened) =   -1.074667
       potential(ionic) =  -10.681536

   izeta = 2
                 rmatch =    5.674993
              splitnorm =    0.150000
                 energy =   -0.198130
                kinetic =    1.365487
    potential(screened) =   -1.563617
       potential(ionic) =  -13.073841

SPLIT: Orbitals with angular momentum L= 1

SPLIT: Basis orbitals for state 3p

SPLIT: PAO cut-off radius determined from an
SPLIT: energy shift=  0.007350 Ry
Split based on tail norm

   izeta = 1
                 lambda =    1.000000
                     rc =    3.014754
                 energy =   -3.324135
                kinetic =    6.227961
    potential(screened) =   -9.552096
       potential(ionic) =  -30.615362

SPLIT: Basis orbitals for state 4p
SPLIT: Non-perturbative polarization orbs for state 4s
SPLIT: rc(1st zeta) (re)set to: 7.7643 (expansion factor: 1.0000)
Split based on tail norm

   izeta = 1
                 lambda =    1.000000
                     rc =    7.764350
                 energy =   -0.018093
                kinetic =    0.779897
    potential(screened) =   -0.797990
       potential(ionic) =   -8.689542

SPLIT: Orbitals with angular momentum L= 2

SPLIT: Basis orbitals for state 3d

SPLIT: PAO cut-off radius determined from an
SPLIT: energy shift=  0.007350 Ry
Split based on tail norm

   izeta = 1
                 lambda =    1.000000
                     rc =    5.479460
                 energy =   -0.207157
                kinetic =    7.643838
    potential(screened) =   -7.850995
       potential(ionic) =  -25.607163

   izeta = 2
                 rmatch =    3.476261
              splitnorm =    0.150000
                 energy =   -0.120921
                kinetic =    9.364299
    potential(screened) =   -9.485220
       potential(ionic) =  -28.865592
atom: Total number of Sankey-type orbitals: 19

atm_pop: Valence configuration (for local Pseudopot. screening):
 3s( 2.00) 4s( 1.00)                                                  
 3p( 6.00) 4p( 0.00)                                                  
 3d( 5.00)                                                            
Vna: chval, zval:   14.00000  14.00000

Vna:  Cut-off radius for the neutral-atom potential:   7.764350
comcore: Pseudo-core radius Rcore=  1.510182

atom: _________________________________________________________________________

<basis_specs>
===============================================================================
I.2                  Z=  53    Mass=  126.90        Charge= 0.17977+309
Lmxo=2 Lmxkb= 2    BasisType=split      Semic=F
L=0  Nsemic=0  Cnfigmx=5
          i=1  nzeta=2  polorb=0  (5s)
            splnorm:   0.15000    
               vcte:    40.000    
               rinn:  -0.90000    
               qcoe:    0.0000    
               qyuk:    0.0000    
               qwid:   0.10000E-01
                rcs:    0.0000      0.0000    
            lambdas:    1.0000      1.0000    
L=1  Nsemic=0  Cnfigmx=5
          i=1  nzeta=2  polorb=1  (5p)  (to be polarized perturbatively)
            splnorm:   0.15000    
               vcte:    40.000    
               rinn:  -0.90000    
               qcoe:    0.0000    
               qyuk:    0.0000    
               qwid:   0.10000E-01
                rcs:    0.0000      0.0000    
            lambdas:    1.0000      1.0000    
L=2  Nsemic=0  Cnfigmx=5
          i=1  nzeta=0  polorb=0  (5d)  (perturbative polarization orbital) (from 5p)
-------------------------------------------------------------------------------
L=0  Nkbl=1  erefs: 0.17977+309
L=1  Nkbl=1  erefs: 0.17977+309
L=2  Nkbl=1  erefs: 0.17977+309
===============================================================================
</basis_specs>

Using PAO.SplitTailNorm
atom: Called for I.2                   (Z =  53)
Maximum radius (at nrval) set to   50.00000 8518

read_vps: Pseudopotential generation method:
read_vps: ONCVPSP-3.Hamann's oncvpsp                        
Valence charge in pseudo generation:    7.00000

read_vps: Pseudopotential includes a core correction:
read_vps: Pseudo-core for xc-correction

xc_check: Exchange-correlation functional:
xc_check: GGA PBEsol
Got Vlocal (oncv-fit) from psml data
Choosing vlocal chloc cutoff:  6.056791
qtot up to nchloc:    6.99753883
atom: Maximum radius for chlocal:    6.05679
atom: Maximum radius for r*vlocal+2*Zval:    6.05679
Reading KB projs from I.2 psml data
Using scalar-relativistic projectors in PSML file

PSML: Kleinman-Bylander projectors: 
   l= 0   rc=  2.046139   Ekb= 12.031722
   l= 0   rc=  2.046139   Ekb=  1.870455
   l= 1   rc=  2.197432   Ekb=  8.127499
   l= 1   rc=  2.197432   Ekb=  1.508278
   l= 2   rc=  2.305973   Ekb=  8.299067
   l= 2   rc=  2.305973   Ekb=  1.445880

PSML: Total number of  Kleinman-Bylander projectors:  18
atom: -------------------------------------------------------------------------

atom: SANKEY-TYPE ORBITALS:
atom: Selected multiple-zeta basis: split     

SPLIT: Orbitals with angular momentum L= 0

SPLIT: Basis orbitals for state 5s

SPLIT: PAO cut-off radius determined from an
SPLIT: energy shift=  0.007350 Ry
Split based on tail norm

   izeta = 1
                 lambda =    1.000000
                     rc =    4.888014
                 energy =   -1.273808
                kinetic =    0.779185
    potential(screened) =   -2.052993
       potential(ionic) =   -6.931397

   izeta = 2
                 rmatch =    3.420925
              splitnorm =    0.150000
                 energy =   -0.759459
                kinetic =    1.765388
    potential(screened) =   -2.524847
       potential(ionic) =   -7.616816

SPLIT: Orbitals with angular momentum L= 1

SPLIT: Basis orbitals for state 5p

SPLIT: PAO cut-off radius determined from an
SPLIT: energy shift=  0.007350 Ry
Split based on tail norm

   izeta = 1
                 lambda =    1.000000
                     rc =    6.154640
                 energy =   -0.513079
                kinetic =    1.006702
    potential(screened) =   -1.519781
       potential(ionic) =   -6.022349

   izeta = 2
                 rmatch =    4.355924
              splitnorm =    0.150000
                 energy =   -0.367073
                kinetic =    1.501123
    potential(screened) =   -1.868196
       potential(ionic) =   -6.700377

POLgen: Perturbative polarization orbital with L=  2

POLgen: Polarization orbital for state 5p
Split based on tail norm

   izeta = 1
                     rc =    6.154640
                 energy =    0.433648
                kinetic =    1.527398
    potential(screened) =   -1.093750
       potential(ionic) =   -5.291039
atom: Total number of Sankey-type orbitals: 13

atm_pop: Valence configuration (for local Pseudopot. screening):
 5s( 2.00)                                                            
 5p( 5.00)                                                            
 5d( 0.00)                                                            
Vna: chval, zval:    7.00000   7.00000

Vna:  Cut-off radius for the neutral-atom potential:   6.154640
comcore: Pseudo-core radius Rcore=  3.846769

atom: _________________________________________________________________________

prinput: Basis input 

PAO.BasisType split     

%block ChemicalSpeciesLabel
    1   24 Cr.1                    # Species index, atomic number, species label
    2   53 I.2                     # Species index, atomic number, species label
%endblock ChemicalSpeciesLabel

%block PAO.Basis                 # Define Basis set
# WARNING: This information might be incomplete!
Cr.1                  5                    # Species label, number of l-shells
 n=3   0   1                         # n, l, Nzeta 
   2.683   
   1.000   
 n=4   0   2                         # n, l, Nzeta 
   7.764      5.675   
   1.000      1.000   
 n=3   1   1                         # n, l, Nzeta 
   3.015   
   1.000   
 n=4   1   1                         # n, l, Nzeta 
   7.764   
   1.000   
 n=3   2   2                         # n, l, Nzeta 
   5.479      3.476   
   1.000      1.000   
I.2                   2                    # Species label, number of l-shells
 n=5   0   2                         # n, l, Nzeta 
   4.888      3.421   
   1.000      1.000   
 n=5   1   2 P   1                   # n, l, Nzeta, Polarization, NzetaPol
   6.155      4.356   
   1.000      1.000   
%endblock PAO.Basis

prinput: ----------------------------------------------------------------------

Dumping basis to NetCDF file Cr.1.ion.nc
Dumping basis to NetCDF file I.2.ion.nc
coor:   Atomic-coordinates input format  =     Cartesian coordinates
coor:                                          (in Angstroms)

siesta: Atomic coordinates (Bohr) and species
siesta:     -7.57505   0.00000  12.28322  1        1
siesta:    -15.15010   0.00000  12.28322  1        2
siesta:    -15.28778  -4.29397   9.24328  2        3
siesta:     -3.92520  -2.26622  15.32316  2        4
siesta:    -11.36257   2.02775   9.24328  2        5
siesta:    -11.36257  -2.02775  15.32316  2        6
siesta:    -18.79994   2.26622   9.24328  2        7
siesta:     -7.43737   4.29397  15.32316  2        8

siesta: System type = slab      

initatomlists: Number of atoms, orbitals, and projectors:      8   116   144

siesta: ******************** Simulation parameters ****************************
siesta:
siesta: The following are some of the parameters of the simulation.
siesta: A complete list of the parameters used, including default values,
siesta: can be found in file out.fdf
siesta:
redata: Spin configuration                          = collinear
redata: Number of spin components                   = 2
redata: Time-Reversal Symmetry                      = T
redata: Spin spiral                                 = F
redata: Long output                                 =   F
redata: Number of Atomic Species                    =        2
redata: Charge density info will appear in .RHO file
redata: Write Mulliken Pop.                         = Atomic and Orbital charges
redata: Matel table size (NRTAB)                    =     1024
redata: Mesh Cutoff                                 =   600.0000 Ry
redata: Net charge of the system                    =     0.0000 |e|
redata: Min. number of SCF Iter                     =        0
redata: Max. number of SCF Iter                     =     5000
redata: SCF mix quantity                            = Hamiltonian
redata: Mix DM or H after convergence               =   F
redata: Recompute H after scf cycle                 =   F
redata: Mix DM in first SCF step                    =   T
redata: Write Pulay info on disk                    =   F
redata: New DM Occupancy tolerance                  = 0.000000000001
redata: No kicks to SCF
redata: DM Mixing Weight for Kicks                  =     0.5000
redata: Require Harris convergence for SCF          =   F
redata: Harris energy tolerance for SCF             =     0.000100 eV
redata: Require DM convergence for SCF              =   T
redata: DM tolerance for SCF                        =     0.000300
redata: Require EDM convergence for SCF             =   F
redata: EDM tolerance for SCF                       =     0.100000 eV
redata: Require H convergence for SCF               =   T
redata: Hamiltonian tolerance for SCF               =     0.010000 eV
redata: Require (free) Energy convergence for SCF   =   F
redata: (free) Energy tolerance for SCF             =     0.000100 eV
redata: Antiferro initial spin density              =   F
redata: Using DFT-D3 dispersion                     =   F
redata: Using Saved Data (generic)                  =   F
redata: Use continuation files for DM               =   T
redata: Neglect nonoverlap interactions             =   F
redata: Method of Calculation                       = Diagonalization
redata: Electronic Temperature                      =   100.0000 K
redata: Fix the spin of the system                  =   F
redata: Max. number of TDED Iter                    =        1
redata: Number of TDED substeps                     =        3
redata: Dynamics option                             = Single-point calculation
mix.SCF: Pulay mixing                            = Pulay
mix.SCF:    Variant                              = stable
mix.SCF:    History steps                        = 16
mix.SCF:    Linear mixing weight                 =     0.200000
mix.SCF:    Mixing weight                        =     0.200000
mix.SCF:    SVD condition                        = 0.1000E-07
mix.SCF: Spin-component mixing                   sum
redata: Save all siesta data in one NC              =   T
redata: NC compression level                        =        0
redata: ***********************************************************************

%block SCF.Mixers
  Pulay
%endblock SCF.Mixers

%block SCF.Mixer.Pulay
  # Mixing method
  method pulay
  variant stable

  # Mixing options
  weight 0.2000
  weight.linear 0.2000
  history 16
%endblock SCF.Mixer.Pulay

DM_history_depth set to one: no extrapolation allowed by default for geometry relaxation
Size of DM history Fstack: 1
Total number of electrons:    70.000000
Total ionic charge:    70.000000

* ProcessorY, Blocksize:    4   7


* Orbital distribution balance (max,min):    11     7

 Kpoints in:           28 . Kpoints trimmed:           25

siesta: k-grid: Number of k-points = 25
siesta: k-points from Monkhorst-Pack grid
siesta: k-cutoff (effective) =     6.500 Ang
siesta: k-point supercell and displacements
siesta: k-grid:     7     0     0      0.000
siesta: k-grid:     0     7     0      0.000
siesta: k-grid:     0     0     1      0.000

diag: Algorithm                                     = D&C
diag: Parallel over k                               =   T
diag: Use parallel 2D distribution                  =   T
diag: Parallel block-size                           = 7
diag: Parallel distribution                         =     4 x     4
diag: Used triangular part                          = Lower
diag: Absolute tolerance                            =  0.100E-15
diag: Orthogonalization factor                      =  0.100E-05
diag: Memory factor                                 =  1.0000

superc: Internal auxiliary supercell:     5 x     5 x     1  =      25
superc: Number of atoms, orbitals, and projectors:    200   2900   3600


ts: **************************************************************
ts: Save H and S matrices                           =    F
ts: Save DM and EDM matrices                        =    F
ts: Only save the overlap matrix S                  =    F
ts: **************************************************************

************************ Begin: TS CHECKS AND WARNINGS ************************
************************ End: TS CHECKS AND WARNINGS **************************


                     ====================================
                        Single-point calculation
                     ====================================

superc: Internal auxiliary supercell:     5 x     5 x     1  =      25
superc: Number of atoms, orbitals, and projectors:    200   2900   3600

outcell: Unit cell vectors (Ang):
       -6.012814    3.471500    0.000000
       -6.012814   -3.471500    0.000000
        0.000000    0.000000   13.000000

outcell: Cell vector modules (Ang)   :    6.943000    6.943000   13.000000
outcell: Cell angles (23,13,12) (deg):     90.0000     90.0000     60.0000
outcell: Cell volume (Ang**3)        :    542.7106
<dSpData1D:S at geom step 0
  <sparsity:sparsity for geom step 0
    nrows_g=116 nrows=11 sparsity=.3337 nnzs=4490, refcount: 7>
  <dData1D:(new from dSpData1D) n=4490, refcount: 1>
refcount: 1>
new_DM -- step:     1
Initializing Density Matrix...

Attempting to read DM from file... Succeeded...
DM from file:
<dSpData2D:IO-DM: siesta.DM
  <sparsity:IO-DM: siesta.DM
    nrows_g=116 nrows=11 sparsity=.3337 nnzs=4490, refcount: 1>
  <dData2D:(new from dSpData2D) n=4490 m=2, refcount: 1>
refcount: 1>
DM to be used:
<dSpData2D:Re-structured SpM
  <sparsity:sparsity for geom step 0
    nrows_g=116 nrows=11 sparsity=.3337 nnzs=4490, refcount: 8>
  <dData2D:(new in restruct) n=4490 m=2, refcount: 1>
refcount: 1>
     spin moment: {S} , |S| = {        0.0        0.0    6.00000 }     6.00000
No. of atoms with KB's overlaping orbs in proc 0. Max # of overlaps:      18     129

InitMesh: MESH = 90 x 90 x 192 = 1555200
InitMesh: Mesh cutoff (required, used) =   600.000   602.862 Ry
New grid distribution [1]: sub = 2
New grid distribution [2]: sub = 2
New grid distribution [3]: sub = 2
Setting up quadratic distribution...

stepf: Fermi-Dirac step function

siesta: Program's energy decomposition (eV):
siesta: Ebs     =     -1371.587433
siesta: Eions   =      9898.721778
siesta: Ena     =      1640.777198
siesta: Ekin    =      2622.972581
siesta: Enl     =       -45.925836
siesta: Eso     =         0.000000
siesta: Edftu   =         0.000000
siesta: DEna    =        81.516679
siesta: DUscf   =         3.729208
siesta: DUext   =         0.000000
siesta: Ex      =     -1242.335448
siesta: Ec      =      -113.526313
siesta: Exc     =     -1355.861761
siesta: EbV     =         0.000000
siesta: eta*DQ  =         0.000000
siesta: Emadel  =         0.000000
siesta: Emeta   =         0.000000
siesta: Emolmec =         0.000000
siesta: Ekinion =         0.000000
siesta: Eharris =     -6951.513709
siesta: Etot    =     -6951.513709
siesta: FreeEng =     -6951.513709

        iscf     Eharris(eV)        E_KS(eV)     FreeEng(eV)     dDmax    Ef(eV) dHmax(eV)
   scf:    1    -6951.513709    -6951.513709    -6951.513709  0.000037 -4.525638  0.001194
     spin moment: {S} , |S| = {        0.0        0.0    6.00000 }     6.00000

SCF Convergence by DM+H criterion
max |DM_out - DM_in|         :     0.0000373613
max |H_out - H_in|      (eV) :     0.0011940680
SCF cycle converged after 1 iterations
timer: Routine,Calls,Time,% = IterSCF        1       0.289   6.60

Using DM_out to compute the final energy and forces
No. of atoms with KB's overlaping orbs in proc 0. Max # of overlaps:      18     129

siesta: E_KS(eV) =            -6951.5137

siesta: E_KS - E_eggbox =     -6951.5137
     spin moment: {S} , |S| = {        0.0        0.0    6.00000 }     6.00000

siesta: Atomic forces (eV/Ang):
----------------------------------------
   Tot    0.000000    0.000000   -0.000000
----------------------------------------
   Max    0.631553
   Res    0.366860    sqrt( Sum f_i^2 / 3N )
----------------------------------------
   Max    0.631553    constrained

Stress tensor Voigt[x,y,z,yz,xz,xy] (kbar):       20.29       20.29       17.97       -0.00       -0.00        0.00
(Free)E + p*V (eV/cell)    -6958.1246
Target enthalpy (eV/cell)    -6951.5137

mulliken: Atomic and Orbital Populations:

mulliken: Spin UP 

Species: Cr.1                
Atom  Qatom  Qorb
               3s      4s      4s      3py     3pz     3px     4py     4pz     
               4px     3dxy    3dyz    3dz2    3dxz    3dx2-y2 3dxy    3dyz    
               3dz2    3dxz    3dx2-y2 
   1  9.073   0.996   0.314   0.056   1.000   0.999   1.000   0.226   0.242
              0.226   0.709   0.594   0.805   0.595   0.709   0.132   0.081

              0.177   0.081   0.132
   2  9.073   0.996   0.314   0.056   1.000   0.999   1.000   0.226   0.242
              0.226   0.709   0.594   0.805   0.595   0.709   0.132   0.081

              0.177   0.081   0.132

Species: I.2                 
Atom  Qatom  Qorb
               5s      5s      5py     5pz     5px     5py     5pz     5px     
               5Pdxy   5Pdyz   5Pdz2   5Pdxz   5Pdx2-y2
   3  3.309   0.847   0.057   0.652   0.819   0.808   0.068  -0.007   0.020
              0.011   0.008   0.009   0.007   0.010
   4  3.309   0.847   0.057   0.652   0.819   0.808   0.068  -0.007   0.020
              0.011   0.008   0.009   0.007   0.010
   5  3.309   0.847   0.057   0.886   0.819   0.574  -0.004  -0.007   0.093
              0.010   0.007   0.009   0.008   0.011
   6  3.309   0.847   0.057   0.886   0.819   0.574  -0.004  -0.007   0.093
              0.010   0.007   0.009   0.008   0.011
   7  3.309   0.847   0.057   0.652   0.819   0.808   0.068  -0.007   0.020
              0.011   0.008   0.009   0.007   0.010
   8  3.309   0.847   0.057   0.652   0.819   0.808   0.068  -0.007   0.020
              0.011   0.008   0.009   0.007   0.010

mulliken: Qtot =       38.000

mulliken: Spin DOWN 

Species: Cr.1                
Atom  Qatom  Qorb
               3s      4s      4s      3py     3pz     3px     4py     4pz     
               4px     3dxy    3dyz    3dz2    3dxz    3dx2-y2 3dxy    3dyz    
               3dz2    3dxz    3dx2-y2 
   1  5.528   0.997   0.276   0.021   1.000   1.000   1.000   0.182   0.198
              0.182   0.134   0.207   0.066   0.207   0.134  -0.015  -0.018

             -0.011  -0.018  -0.015
   2  5.528   0.997   0.276   0.021   1.000   1.000   1.000   0.182   0.198
              0.182   0.134   0.207   0.066   0.207   0.134  -0.015  -0.018

             -0.011  -0.018  -0.015

Species: I.2                 
Atom  Qatom  Qorb
               5s      5s      5py     5pz     5px     5py     5pz     5px     
               5Pdxy   5Pdyz   5Pdz2   5Pdxz   5Pdx2-y2
   3  3.491   0.853   0.055   0.749   0.879   0.846   0.060  -0.006   0.019
              0.009   0.006   0.007   0.006   0.008
   4  3.491   0.853   0.055   0.749   0.879   0.846   0.060  -0.006   0.019
              0.009   0.006   0.007   0.006   0.008
   5  3.491   0.853   0.055   0.894   0.879   0.701  -0.001  -0.006   0.081
              0.008   0.006   0.007   0.006   0.009
   6  3.491   0.853   0.055   0.894   0.879   0.701  -0.001  -0.006   0.081
              0.008   0.006   0.007   0.006   0.009
   7  3.491   0.853   0.055   0.749   0.879   0.846   0.060  -0.006   0.019
              0.009   0.006   0.007   0.006   0.008
   8  3.491   0.853   0.055   0.749   0.879   0.846   0.060  -0.006   0.019
              0.009   0.006   0.007   0.006   0.008

mulliken: Qtot =       32.000

siesta: Program's energy decomposition (eV):
siesta: Ebs     =     -1371.587433
siesta: Eions   =      9898.721778
siesta: Ena     =      1640.777198
siesta: Ekin    =      2622.972581
siesta: Enl     =       -45.925836
siesta: Eso     =         0.000000
siesta: Edftu   =         0.000000
siesta: DEna    =        81.516679
siesta: DUscf   =         3.729208
siesta: DUext   =         0.000000
siesta: Ex      =     -1242.335448
siesta: Ec      =      -113.526313
siesta: Exc     =     -1355.861761
siesta: EbV     =         0.000000
siesta: eta*DQ  =         0.000000
siesta: Emadel  =         0.000000
siesta: Emeta   =         0.000000
siesta: Emolmec =         0.000000
siesta: Ekinion =         0.000000
siesta: Eharris =     -6951.513709
siesta: Etot    =     -6951.513709
siesta: FreeEng =     -6951.513709

siesta: Final energy (eV):
siesta:  Band Struct. =   -1371.587433
siesta:       Kinetic =    2622.972581
siesta:       Hartree =    6679.363512
siesta:         Edftu =       0.000000
siesta:       Eso     =       0.000000
siesta:    Ext. field =       0.000000
siesta:         Exch. =   -1242.335448
siesta:         Corr. =    -113.526313
siesta:     Bulk bias =       0.000000
siesta:   Exch.-corr. =   -1355.861761
siesta:  Ion-electron =  -16105.936745
siesta:       Ion-ion =    1207.948703
siesta:       Ekinion =       0.000000
siesta: D3 dispersion =       0.000000
siesta:         Total =   -6951.513709
siesta:         Fermi =      -4.525638

siesta: Atomic forces (eV/Ang):
siesta:      1   -0.000004    0.000000   -0.000000
siesta:      2    0.000004   -0.000000   -0.000000
siesta:      3   -0.323454    0.186774    0.631544
siesta:      4   -0.323454   -0.186774   -0.631544
siesta:      5   -0.000013   -0.373451    0.631553
siesta:      6   -0.000013    0.373451   -0.631553
siesta:      7    0.323466    0.186752    0.631544
siesta:      8    0.323466   -0.186752   -0.631544
siesta: ----------------------------------------
siesta:    Tot    0.000000    0.000000   -0.000000

siesta: Stress tensor (static) (eV/Ang**3):
siesta:     0.012664    0.000000   -0.000000
siesta:     0.000000    0.012665   -0.000000
siesta:    -0.000000   -0.000000    0.011215

siesta: Cell volume =        542.710613 Ang**3

siesta: Pressure (static):
siesta:                Solid            Molecule  Units
siesta:          -0.00013267         -0.00007581  Ry/Bohr**3
siesta:          -0.01218129         -0.00696039  eV/Ang**3
siesta:         -19.51657581        -11.15177326  kBar
(Free)E+ p_basis*V_orbitals  =       -6946.106272
(Free)Eharris+ p_basis*V_orbitals  =       -6946.106272
     spin moment: {S} , |S| = {        0.0        0.0    6.00000 }     6.00000

siesta: Electric dipole (a.u.)  =    0.000000    0.000000    0.000000
siesta: Electric dipole (Debye) =    0.000000    0.000000    0.000000

Hirshfeld Atomic Populations:
Atom #     dQatom  Atom pop        Sz  Species
     1    0.30272  13.69728   3.17458  Cr.1
     2    0.30276  13.69724   3.17457  Cr.1
     3   -0.10091   7.10091  -0.05819  I.2
     4   -0.10091   7.10091  -0.05819  I.2
     5   -0.10092   7.10092  -0.05819  I.2
     6   -0.10092   7.10092  -0.05819  I.2
     7   -0.10091   7.10091  -0.05819  I.2
     8   -0.10091   7.10091  -0.05819  I.2
-------------------------------------
 Total                        6.00000

Voronoi Atomic Populations:
Atom #     dQatom  Atom pop        Sz  Species
     1    0.25063  13.74937   3.34770  Cr.1
     2    0.25066  13.74934   3.34769  Cr.1
     3   -0.08355   7.08355  -0.11590  I.2
     4   -0.08355   7.08355  -0.11590  I.2
     5   -0.08355   7.08355  -0.11590  I.2
     6   -0.08355   7.08355  -0.11590  I.2
     7   -0.08355   7.08355  -0.11590  I.2
     8   -0.08355   7.08355  -0.11590  I.2
-------------------------------------
 Total                        6.00000
 

cite: Please see "siesta.bib" for an exhaustive BiBTeX file.
cite: Please clearly indicate Siesta version in published work: 5.1-MaX-33-gaf41def5c-dirty
cite: This calculation has made use of the following articles
cite: which are encouraged to be cited in a published work.
        Primary SIESTA paper
          DOI: www.doi.org/10.1088/0953-8984/14/11/302


>> End of run:  11-SEP-2024  11:22:22
Job completed
