<preamble>

<basis_specs>
===============================================================================
I.2                  Z=  53    Mass=  126.90        Charge= 0.17977+309
Lmxo=2 Lmxkb= 2    BasisType=split      Semic=F
L=0  Nsemic=0  Cnfigmx=5
          i=1  nzeta=2  polorb=0  (5s)
            splnorm:   0.15000    
               vcte:    40.000    
               rinn:    4.4080    
               qcoe:    0.0000    
               qyuk:    0.0000    
               qwid:   0.10000E-01
                rcs:    4.8978      3.4244    
            lambdas:    1.0000      1.0000    
L=1  Nsemic=0  Cnfigmx=5
          i=1  nzeta=2  polorb=1  (5p)  (to be polarized perturbatively)
            splnorm:   0.15000    
               vcte:    40.000    
               rinn:    5.5392    
               qcoe:    0.0000    
               qyuk:    0.0000    
               qwid:   0.10000E-01
                rcs:    6.1546      4.3559    
            lambdas:    1.0000      1.0000    
L=2  Nsemic=0  Cnfigmx=5
          i=1  nzeta=0  polorb=0  (5d)  (perturbative polarization orbital) (from 5p)
-------------------------------------------------------------------------------
L=0  Nkbl=1  erefs: 0.17977+309
L=1  Nkbl=1  erefs: 0.17977+309
L=2  Nkbl=1  erefs: 0.17977+309
===============================================================================
</basis_specs>

<pseudopotential_header>
 I  ps rel pcec
 ONCVPSP-3.2018-05-09Hamann's oncvpsp                        
 5s 2.00r r= 2.02/5p 5.00r r= 2.17/5d 0.00r r= 2.28/                    5s:5p:
</pseudopotential_header>
</preamble>
I                             # Symbol
I.2                           # Label
   53                         # Atomic number
     7.00000000000                             # Valence charge
     126.900000000        # Mass 
     41.1983495350        # Self energy 
   2   5                      # Lmax for basis, no. of nl orbitals 
   2  10 T                    # Lmax for projectors, no. of nl KB projectors, LJ projs?
# PAOs:__________________________
  0  5  1  0  2.000000   #orbital l, n, z, is_polarized, population
 500    0.9815270173756991E-02     4.897819816704739     # npts, delta, cutoff
     0.000000000000000        0.7739092001284237E-01
    0.9815270173756991E-02    0.7746655221677642E-01
    0.1963054034751398E-01    0.7769605050156239E-01
    0.2944581052127097E-01    0.7807820594873867E-01
    0.3926108069502796E-01    0.7861250588894160E-01
    0.4907635086878495E-01    0.7929823489514048E-01
    0.5889162104254195E-01    0.8013447665428190E-01
    0.6870689121629893E-01    0.8112011653590746E-01
    0.7852216139005593E-01    0.8225384473308059E-01
    0.8833743156381292E-01    0.8353415995110416E-01
    0.9815270173756990E-01    0.8495937362772882E-01
    0.1079679719113269        0.8652761466844859E-01
    0.1177832420850839        0.8823683467905964E-01
    0.1275985122588409        0.9008481367599096E-01
    0.1374137824325979        0.9206916625322170E-01
    0.1472290526063549        0.9418734818298048E-01
    0.1570443227801119        0.9643666342586345E-01
    0.1668595929538688        0.9881427152455752E-01
    0.1766748631276258        0.1013171953539911    
    0.1864901333013828        0.1039423291994908    
    0.1963054034751398        0.1066864471333746    
    0.2061206736488968        0.1095462116593957    
    0.2159359438226538        0.1125181825935423    
    0.2257512139964108        0.1155988261489189    
    0.2355664841701678        0.1187845241917818    
    0.2453817543439248        0.1220715836352751    
    0.2551970245176818        0.1254562459370234    
    0.2650122946914387        0.1289346966664685    
    0.2748275648651957        0.1325030751077195    
    0.2846428350389527        0.1361574838636873    
    0.2944581052127097        0.1398939984274132    
    0.3042733753864667        0.1437086766867842    
    0.3140886455602237        0.1475975683292232    
    0.3239039157339807        0.1515567241134871    
    0.3337191859077377        0.1555822049763662    
    0.3435344560814947        0.1596700909428709    
    0.3533497262552517        0.1638164898093994    
    0.3631649964290087        0.1680175455704138    
    0.3729802666027656        0.1722694465602925    
    0.3827955367765226        0.1765684332832768    
    0.3926108069502796        0.1809108059057905    
    0.4024260771240366        0.1852929313868550    
    0.4122413472977936        0.1897112502238745    
    0.4220566174715506        0.1941622827926943    
    0.4318718876453076        0.1986426352625377    
    0.4416871578190646        0.2031490050682119    
    0.4515024279928216        0.2076781859238165    
    0.4613176981665786        0.2122270723640834    
    0.4711329683403356        0.2167926638014311    
    0.4809482385140925        0.2213720680887996    
    0.4907635086878495        0.2259625045803581    
    0.5005787788616065        0.2305613066842185    
    0.5103940490353636        0.2351659239033532    
    0.5202093192091205        0.2397739233629785    
    0.5300245893828774        0.2443829908247410    
    0.5398398595566345        0.2489909311900861    
    0.5496551297303914        0.2535956684972500    
    0.5594703999041485        0.2581952454183106    
    0.5692856700779054        0.2627878222647155    
    0.5791009402516625        0.2673716755116617    
    0.5889162104254194        0.2719451958535560    
    0.5987314805991765        0.2765068858046461    
    0.6085467507729334        0.2810553568606590    
    0.6183620209466905        0.2855893262389828    
    0.6281772911204474        0.2901076132165395    
    0.6379925612942043        0.2946091350860357    
    0.6478078314679614        0.2990929027527006    
    0.6576231016417183        0.3035580159949784    
    0.6674383718154754        0.3080036584138783    
    0.6772536419892323        0.3124290920968107    
    0.6870689121629894        0.3168336520227831    
    0.6968841823367463        0.3212167402367054    
    0.7066994525105034        0.3255778198213890    
    0.7165147226842603        0.3299164086964463    
    0.7263299928580174        0.3342320732738819    
    0.7361452630317743        0.3385244220005716    
    0.7459605332055312        0.3427930988181222    
    0.7557758033792883        0.3470377765707763    
    0.7655910735530452        0.3512581503920634    
    0.7754063437268023        0.3554539311008195    
    0.7852216139005592        0.3596248386369764    
    0.7950368840743163        0.3637705955671894    
    0.8048521542480732        0.3678909206899033    
    0.8146674244218303        0.3719855227688950    
    0.8244826945955872        0.3760540944235943    
    0.8342979647693443        0.3800963062037145    
    0.8441132349431012        0.3841118008747521    
    0.8539285051168581        0.3881001879399233    
    0.8637437752906152        0.3920610384229360    
    0.8735590454643721        0.3959938799347826    
    0.8833743156381292        0.3998981920464146    
    0.8931895858118861        0.4037734019877335    
    0.9030048559856432        0.4076188806918585    
    0.9128201261594001        0.4114339392020616    
    0.9226353963331572        0.4152178254571317    
    0.9324506665069141        0.4189697214692315    
    0.9422659366806712        0.4226887409065829    
    0.9520812068544281        0.4263739270915159    
    0.9618964770281850        0.4300242514225965    
    0.9717117472019421        0.4336386122276971    
    0.9815270173756990        0.4372158340529868    
    0.9913422875494561        0.4407546673909434    
     1.001157557723213        0.4442537888485686    
     1.010972827896970        0.4477118017551245    
     1.020788098070727        0.4511272372067957    
     1.030603368244484        0.4544985555438166    
     1.040418638418241        0.4578241482537929    
     1.050233908591998        0.4611023402930768    
     1.060049178765755        0.4643313928163507    
     1.069864448939512        0.4675095063027990    
     1.079679719113269        0.4706348240656107    
     1.089494989287026        0.4737054361299272    
     1.099310259460783        0.4767193834628364    
     1.109125529634540        0.4796746625375160    
     1.118940799808297        0.4825692302122649    
     1.128756069982054        0.4854010089038557    
     1.138571340155811        0.4881678920334283    
     1.148386610329568        0.4908677497220210    
     1.158201880503325        0.4934984347118371    
     1.168017150677082        0.4960577884884119    
     1.177832420850839        0.4985436475780523    
     1.187647691024596        0.5009538499942074    
     1.197462961198353        0.5032862418058679    
     1.207278231372110        0.5055386838005885    
     1.217093501545867        0.5077090582144067    
     1.226908771719624        0.5097952755006540    
     1.236724041893381        0.5117952811095734    
     1.246539312067138        0.5137070622506221    
     1.256354582240895        0.5155286546094618    
     1.266169852414652        0.5172581489918748    
     1.275985122588409        0.5188936978671754    
     1.285800392762166        0.5204335217841469    
     1.295615662935923        0.5218759156331084    
     1.305430933109680        0.5232192547283768    
     1.315246203283437        0.5244620006861800    
     1.325061473457194        0.5256027070739515    
     1.334876743630951        0.5266400248079156    
     1.344692013804708        0.5275727072769461    
     1.354507283978465        0.5283996151718265    
     1.364322554152222        0.5291197210002972    
     1.374137824325979        0.5297321132695721    
     1.383953094499736        0.5302360003194155    
     1.393768364673493        0.5306307137903109    
     1.403583634847250        0.5309157117127661    
     1.413398905021007        0.5310905812053687    
     1.423214175194764        0.5311550407708154    
     1.433029445368521        0.5311089421807946    
     1.442844715542278        0.5309522719422598    
     1.452659985716035        0.5306851523393687    
     1.462475255889792        0.5303078420470687    
     1.472290526063549        0.5298207363140410    
     1.482105796237306        0.5292243667144716    
     1.491921066411062        0.5285194004698139    
     1.501736336584820        0.5277066393434879    
     1.511551606758577        0.5267870181130815    
     1.521366876932334        0.5257616026264000    
     1.531182147106090        0.5246315874492452    
     1.540997417279848        0.5233982931145081    
     1.550812687453605        0.5220631629836540    
     1.560627957627362        0.5206277597332118    
     1.570443227801118        0.5190937614803598    
     1.580258497974875        0.5174629578340214    
     1.590073768148633        0.5157372450667036    
     1.599889038322389        0.5139186204573366    
     1.609704308496146        0.5120091784909867    
     1.619519578669903        0.5100111048923044    
     1.629334848843661        0.5079266709537126    
     1.639150119017417        0.5057582276353935    
     1.648965389191174        0.5035081994604519    
     1.658780659364931        0.5011790782287645    
     1.668595929538689        0.4987734165739513    
     1.678411199712445        0.4962938213880979    
     1.688226469886202        0.4937429471395556    
     1.698041740059959        0.4911234891091860    
     1.707857010233716        0.4884381765708196    
     1.717672280407473        0.4856897659416171    
     1.727487550581230        0.4828810339281144    
     1.737302820754987        0.4800147706935655    
     1.747118090928744        0.4770937730719371    
     1.756933361102501        0.4741208378536584    
     1.766748631276258        0.4710987551676685    
     1.776563901450015        0.4680303019839386    
     1.786379171623772        0.4649182357598451    
     1.796194441797529        0.4617652882531760    
     1.806009711971286        0.4585741595236963    
     1.815824982145043        0.4553475121442113    
     1.825640252318800        0.4520879656414137    
     1.835455522492557        0.4487980911851118    
     1.845270792666314        0.4454804065442687    
     1.855086062840071        0.4421373713258208    
     1.864901333013828        0.4387713825125045    
     1.874716603187585        0.4353847703130388    
     1.884531873361342        0.4319797943380073    
     1.894347143535099        0.4285586401124358    
     1.904162413708856        0.4251234159350327    
     1.913977683882613        0.4216761500929168    
     1.923792954056370        0.4182187884378060    
     1.933608224230127        0.4147531923302281    
     1.943423494403884        0.4112811369547100    
     1.953238764577641        0.4078043100042293    
     1.963054034751398        0.4043243106213067    
     1.972869304925155        0.4008426489792619    
     1.982684575098912        0.3973607467154395    
     1.992499845272669        0.3938799371692241    
     2.002315115446426        0.3904014633024509    
     2.012130385620183        0.3869264772559428    
     2.021945655793940        0.3834560466679533    
     2.031760925967697        0.3799911665160014    
     2.041576196141454        0.3765327722398454    
     2.051391466315211        0.3730817525151822    
     2.061206736488968        0.3696389600471608    
     2.071022006662725        0.3662052154122171    
     2.080837276836482        0.3627813059746316    
     2.090652547010239        0.3593679845569412    
     2.100467817183996        0.3559659708967717    
     2.110283087357753        0.3525759531953034    
     2.120098357531510        0.3491985892023271    
     2.129913627705267        0.3458345070303067    
     2.139728897879024        0.3424843061091206    
     2.149544168052781        0.3391485580341059    
     2.159359438226538        0.3358278074004614    
     2.169174708400295        0.3325225726355263    
     2.178989978574052        0.3292333468630929    
     2.188805248747809        0.3259605986352469    
     2.198620518921566        0.3227047727512265    
     2.208435789095323        0.3194662910316562    
     2.218251059269080        0.3162455531723530    
     2.228066329442837        0.3130429373194535    
     2.237881599616594        0.3098588007939072    
     2.247696869790351        0.3066934807634245    
     2.257512139964108        0.3035472949248891    
     2.267327410137865        0.3004205420485651    
     2.277142680311622        0.2973135026781199    
     2.286957950485379        0.2942264397340666    
     2.296773220659136        0.2911595991528235    
     2.306588490832893        0.2881132104091199    
     2.316403761006650        0.2850874870784356    
     2.326219031180407        0.2820826273678994    
     2.336034301354164        0.2790988146545813    
     2.345849571527921        0.2761362179971689    
     2.355664841701678        0.2731949926341719    
     2.365480111875435        0.2702752804650134    
     2.375295382049192        0.2673772105184378    
     2.385110652222949        0.2645008994077394    
     2.394925922396706        0.2616464517732049    
     2.404741192570463        0.2588139607116094    
     2.414556462744220        0.2560035081931219    
     2.424371732917977        0.2532151654659672    
     2.434187003091734        0.2504489934492685    
     2.444002273265490        0.2477050431142968    
     2.453817543439248        0.2449833558544869    
     2.463632813613005        0.2422839638444377    
     2.473448083786762        0.2396068903882849    
     2.483263353960519        0.2369521502576430    
     2.493078624134276        0.2343197500194223    
     2.502893894308033        0.2317096883537684    
     2.512709164481790        0.2291219563624101    
     2.522524434655546        0.2265565378676257    
     2.532339704829304        0.2240134097021600    
     2.542154975003061        0.2214925419902710    
     2.551970245176817        0.2189938984201317    
     2.561785515350575        0.2165174365078884    
     2.571600785524331        0.2140631078535609    
     2.581416055698089        0.2116308583889643    
     2.591231325871846        0.2092206286179620    
     2.601046596045602        0.2068323538492037    
     2.610861866219360        0.2044659644215254    
     2.620677136393117        0.2021213859222832    
     2.630492406566873        0.1997985393987955    
     2.640307676740631        0.1974973415630373    
     2.650122946914387        0.1952177049898114    
     2.659938217088144        0.1929595383086182    
     2.669753487261902        0.1907227463893275    
     2.679568757435658        0.1885072305218099    
     2.689384027609416        0.1863128885898474    
     2.699199297783172        0.1841396152393290    
     2.709014567956929        0.1819873020408810    
     2.718829838130687        0.1798558376472739    
     2.728645108304443        0.1777451079455847    
     2.738460378478200        0.1756549962042595    
     2.748275648651958        0.1735853832153483    
     2.758090918825714        0.1715361474319833    
     2.767906188999471        0.1695071651011867    
     2.777721459173228        0.1674983103921750    
     2.787536729346985        0.1655094555203986    
     2.797351999520743        0.1635404708672955    
     2.807167269694499        0.1615912250958461    
     2.816982539868256        0.1596615852622996    
     2.826797810042013        0.1577514169239508    
     2.836613080215770        0.1558605842431107    
     2.846428350389527        0.1539889500874766    
     2.856243620563284        0.1521363761269981    
     2.866058890737041        0.1503027229272707    
     2.875874160910798        0.1484878500394954    
     2.885689431084555        0.1466916160873957    
     2.895504701258312        0.1449138788508913    
     2.905319971432069        0.1431544953466748    
     2.915135241605826        0.1414133219059113    
     2.924950511779583        0.1396902142490836    
     2.934765781953340        0.1379850275580356    
     2.944581052127097        0.1362976165452060    
     2.954396322300854        0.1346278355204653    
     2.964211592474611        0.1329755384552974    
     2.974026862648368        0.1313405790444974    
     2.983842132822125        0.1297228107655174    
     2.993657402995882        0.1281220869355634    
     3.003472673169639        0.1265382607664163    
     3.013287943343396        0.1249711854169654    
     3.023103213517153        0.1234207140438403    
     3.032918483690910        0.1218866998499096    
     3.042733753864667        0.1203689961308110    
     3.052549024038424        0.1188674563194963    
     3.062364294212181        0.1173819340290899    
     3.072179564385938        0.1159122830938583    
     3.081994834559695        0.1144583576084002    
     3.091810104733452        0.1130200119652006    
     3.101625374907209        0.1115971008906134    
     3.111440645080966        0.1101894794792244    
     3.121255915254723        0.1087970032265971    
     3.131071185428480        0.1074195280606861    
     3.140886455602237        0.1060569103717645    
     3.150701725775994        0.1047090070409870    
     3.160516995949751        0.1033756754674872    
     3.170332266123508        0.1020567735943865    
     3.180147536297265        0.1007521599334345    
     3.189962806471022        0.9946169358847054E-01
     3.199778076644779        0.9818523427761559E-01
     3.209593346818536        0.9692264235451013E-01
     3.219408616992293        0.9567377882834750E-01
     3.229223887166050        0.9443850538287087E-01
     3.239039157339807        0.9321668439428808E-01
     3.248854427513564        0.9200817894833289E-01
     3.258669697687321        0.9081285285628382E-01
     3.268484967861078        0.8963057067007356E-01
     3.278300238034835        0.8846119769647194E-01
     3.288115508208592        0.8730460001051102E-01
     3.297930778382349        0.8616064446801246E-01
     3.307746048556106        0.8502919871731941E-01
     3.317561318729863        0.8391013121023429E-01
     3.327376588903620        0.8280331121228968E-01
     3.337191859077377        0.8170860881224488E-01
     3.347007129251134        0.8062589493089999E-01
     3.356822399424891        0.7955504132921505E-01
     3.366637669598648        0.7849592061585711E-01
     3.376452939772405        0.7744840625407816E-01
     3.386268209946162        0.7641237256800795E-01
     3.396083480119919        0.7538769474834679E-01
     3.405898750293676        0.7437424885756200E-01
     3.415714020467433        0.7337191183451339E-01
     3.425529290641190        0.7238056149857999E-01
     3.435344560814947        0.7140007655326938E-01
     3.445159830988704        0.7043033658939696E-01
     3.454975101162461        0.6947122208778454E-01
     3.464790371336218        0.6852261442152768E-01
     3.474605641509975        0.6758439585783381E-01
     3.484420911683732        0.6665644955947585E-01
     3.494236181857489        0.6573865958584738E-01
     3.504051452031246        0.6483091089364890E-01
     3.513866722205003        0.6393308933722171E-01
     3.523681992378759        0.6304508166853680E-01
     3.533497262552517        0.6216677553685870E-01
     3.543312532726274        0.6129805948809539E-01
     3.553127802900031        0.6043882296385339E-01
     3.562943073073788        0.5958895630020675E-01
     3.572758343247544        0.5874835072617993E-01
     3.582573613421302        0.5791689836197933E-01
     3.592388883595059        0.5709449221696782E-01
     3.602204153768815        0.5628102618742521E-01
     3.612019423942573        0.5547639505403828E-01
     3.621834694116330        0.5468049447920029E-01
     3.631649964290086        0.5389322100409032E-01
     3.641465234463844        0.5311447204558501E-01
     3.651280504637600        0.5234414589294352E-01
     3.661095774811358        0.5158214170432604E-01
     3.670911044985115        0.5082835950314576E-01
     3.680726315158871        0.5008270017425775E-01
     3.690541585332629        0.4934506546001627E-01
     3.700356855506385        0.4861535795613686E-01
     3.710172125680142        0.4789348110745535E-01
     3.719987395853900        0.4717933920353977E-01
     3.729802666027656        0.4647283737421817E-01
     3.739617936201413        0.4577388158493260E-01
     3.749433206375171        0.4508237863200905E-01
     3.759248476548927        0.4439823613782136E-01
     3.769063746722685        0.4372136254585680E-01
     3.778879016896441        0.4305166711571282E-01
     3.788694287070198        0.4238905991795233E-01
     3.798509557243956        0.4173345182891720E-01
     3.808324827417712        0.4108475452544717E-01
     3.818140097591469        0.4044288047955895E-01
     3.827955367765226        0.3980774295301985E-01
     3.837770637938983        0.3917925599186742E-01
     3.847585908112740        0.3855733442087916E-01
     3.857401178286497        0.3794189383797680E-01
     3.867216448460254        0.3733285060861768E-01
     3.877031718634011        0.3673012186007981E-01
     3.886846988807768        0.3613362547574054E-01
     3.896662258981525        0.3554328008930720E-01
     3.906477529155282        0.3495900507901309E-01
     3.916292799329039        0.3438072056179389E-01
     3.926108069502796        0.3380834738739874E-01
     3.935923339676553        0.3324180713250057E-01
     3.945738609850310        0.3268102209477212E-01
     3.955553880024067        0.3212591528695110E-01
     3.965369150197824        0.3157641043087531E-01
     3.975184420371581        0.3103243195149542E-01
     3.984999690545338        0.3049390497088124E-01
     3.994814960719095        0.2996075530220964E-01
     4.004630230892852        0.2943290944375489E-01
     4.014445501066609        0.2891029457285104E-01
     4.024260771240366        0.2839283853985435E-01
     4.034076041414123        0.2788046986210173E-01
     4.043891311587880        0.2737311771786240E-01
     4.053706581761637        0.2687071194029490E-01
     4.063521851935394        0.2637318301139102E-01
     4.073337122109151        0.2588046205592706E-01
     4.083152392282908        0.2539248083541509E-01
     4.092967662456665        0.2490917174205785E-01
     4.102782932630422        0.2443046779271036E-01
     4.112598202804179        0.2395630262284106E-01
     4.122413472977936        0.2348661048050292E-01
     4.132228743151693        0.2302132622031190E-01
     4.142044013325450        0.2256038529743253E-01
     4.151859283499207        0.2210372376157446E-01
     4.161674553672964        0.2165127825099724E-01
     4.171489823846721        0.2120298598652674E-01
     4.181305094020478        0.2075878476558339E-01
     4.191120364194235        0.2031861295622347E-01
     4.200935634367992        0.1988240949119166E-01
     4.210750904541749        0.1945011386198900E-01
     4.220566174715506        0.1902166611295471E-01
     4.230381444889263        0.1859700683536247E-01
     4.240196715063020        0.1817607716153311E-01
     4.250011985236777        0.1775881875896196E-01
     4.259827255410534        0.1734517382446452E-01
     4.269642525584291        0.1693508507833680E-01
     4.279457795758048        0.1652849575853516E-01
     4.289273065931805        0.1612534961487219E-01
     4.299088336105562        0.1572559090323244E-01
     4.308903606279319        0.1532916437980560E-01
     4.318718876453076        0.1493601529533799E-01
     4.328534146626833        0.1454608938940479E-01
     4.338349416800590        0.1415933288469971E-01
     4.348164686974346        0.1377569248134680E-01
     4.357979957148104        0.1339511535123236E-01
     4.367795227321861        0.1301754913235370E-01
     4.377610497495618        0.1264294192319120E-01
     4.387425767669375        0.1227124227710041E-01
     4.397241037843131        0.1190239919672408E-01
     4.407056308016889        0.1153636212843189E-01
     4.416871578190646        0.1117308095677072E-01
     4.426686848364403        0.1081250599894238E-01
     4.436502118538160        0.1045458799938097E-01
     4.446317388711917        0.1009927813938788E-01
     4.456132658885673        0.9746528424606554E-02
     4.465947929059431        0.9396294550178248E-02
     4.475763199233188        0.9048544786710086E-02
     4.485578469406945        0.8703275225314161E-02
     4.495393739580702        0.8360527056356709E-02
     4.505209009754458        0.8020400724089076E-02
     4.515024279928216        0.7683064008378650E-02
     4.524839550101973        0.7348753562107945E-02
     4.534654820275730        0.7017770934406756E-02
     4.544470090449487        0.6690474655363783E-02
     4.554285360623243        0.6367269929833908E-02
     4.564100630797000        0.6048597212636978E-02
     4.573915900970758        0.5734920605746797E-02
     4.583731171144515        0.5426716718002835E-02
     4.593546441318272        0.5124464388490061E-02
     4.603361711492028        0.4828635497433897E-02
     4.613176981665785        0.4539686963820696E-02
     4.622992251839543        0.4258053945155894E-02
     4.632807522013300        0.3984144200963186E-02
     4.642622792187057        0.3718333549117605E-02
     4.652438062360813        0.3460962326166665E-02
     4.662253332534570        0.3212332754675814E-02
     4.672068602708327        0.2972707118897355E-02
     4.681883872882085        0.2742306652291053E-02
     4.691699143055842        0.2521311045045157E-02
     4.701514413229599        0.2309858485601292E-02
     4.711329683403355        0.2108046156541297E-02
     4.721144953577112        0.1915931111530107E-02
     4.730960223750870        0.1733531465957838E-02
     4.740775493924627        0.1560827839152620E-02
     4.750590764098384        0.1397764990277197E-02
     4.760406034272140        0.1244253592831368E-02
     4.770221304445897        0.1100172093499008E-02
     4.780036574619654        0.9653685988701883E-03
     4.789851844793412        0.8396627265495578E-03
     4.799667114967169        0.7228473419620425E-03
     4.809482385140925        0.6146900722287108E-03
     4.819297655314682        0.5149344302743391E-03
     4.829112925488439        0.4233002662265181E-03
     4.838928195662197        0.3394830191507105E-03
     4.848743465835954        0.2631506883682375E-03
     4.858558736009710        0.1939360463388681E-03
     4.868374006183467        0.1314175279675631E-03
     4.878189276357224        0.7506799324202575E-04
     4.888004546530981        0.2406700315993496E-04
     4.897819816704739         0.000000000000000    
  0  5  2  0  0.000000   #orbital l, n, z, is_polarized, population
 500    0.6862439542218232E-02     3.424357331566898     # npts, delta, cutoff
     0.000000000000000       -0.3413413958601336    
    0.6862439542218232E-02   -0.3412654950515631    
    0.1372487908443646E-01   -0.3410323281453308    
    0.2058731862665469E-01   -0.3406438818297339    
    0.2744975816887293E-01   -0.3401004070053701    
    0.3431219771109116E-01   -0.3394022536420949    
    0.4117463725330939E-01   -0.3385498707417808    
    0.4803707679552762E-01   -0.3375438057806656    
    0.5489951633774585E-01   -0.3363847039679563    
    0.6176195587996409E-01   -0.3350733073593619    
    0.6862439542218232E-01   -0.3336104538346347    
    0.7548683496440055E-01   -0.3319970759430260    
    0.8234927450661877E-01   -0.3302341996194418    
    0.8921171404883702E-01   -0.3283229427738925    
    0.9607415359105524E-01   -0.3262645137569228    
    0.1029365931332735       -0.3240602097038562    
    0.1097990326754917       -0.3217114147608935    
    0.1166614722177099       -0.3192195981962893    
    0.1235239117599282       -0.3165863124000388    
    0.1303863513021464       -0.3138131907756992    
    0.1372487908443646       -0.3109019455281556    