Executable      : /home/hexu/.local/siesta_soc/bin/siesta
Version         : 5.1-MaX-33-gaf41def5c-dirty
Architecture    : x86_64
Compiler version: GNU-11.4.0
Compiler flags  : -fallow-argument-mismatch -O3 -march=native
Parallelisations: MPI
NetCDF support
NetCDF-4 support
NetCDF-4 MPI-IO support
Lua support
DFT-D3 support

Runtime information:
* Directory : /home/hexu/projects/test_anisotropy/CrI3/CrI3/scf/z
* Running on 16 nodes in parallel.
>> Start of run:  11-SEP-2024  11:09:23

                           *********************** 
                           *  WELCOME TO SIESTA  * 
                           *********************** 

 NOTE: Siesta V5 introduces some new defaults for basis-set generation
 NOTE: which might lead to slightly different numerical results.
 NOTE: Please see the manual for full details and compatibility measures.


reinit: Reading from standard input
reinit: Dumping input in INPUT_TMP.56314
************************** Dump of input data file ****************************
SystemName	siesta
SystemLabel	siesta
CDF.save	True
DFTU.FirstIteration	True
DM.NumberPulay	6
Diag.ParallelOverK	True
ElectronicTemperature	100 K
MaxSCFIterations	5000
MullikenInSCF	False
SCF.DM.Tolerance	0.0003
SCF.EDM.Tolerance	1e-1 eV
SCF.H.Tolerance	1e-2 eV
SCF.Mix	hamiltonian
SCF.Mix.Spin	sum
SCF.Mixer.History	16
SCF.Mixer.Method	Pulay
SCF.Mixer.Weight	0.2
SCF.MustConverge	False
SCFMustConverge	False
SaveHS	True
Spin.Fix	False
WriteHirshfeldPop	True
WriteMullikenPop	1
WriteOrbMom	True
WriteVoronoiPop	True
savehs.so	True
Spin	spin-orbit
XC.functional	GGA
XC.authors	PBEsol
MeshCutoff	8163.4158073101735	eV
PAO.EnergyShift	0.1	eV
NumberOfSpecies	2
NumberOfAtoms	8
%block ChemicalSpecieslabel
    1 24 Cr.1
    2 53 I.2
%endblock ChemicalSpecieslabel
%block PAO.BasisSizes
    Cr.1	DZP
    I.2	DZP
%endblock PAO.BasisSizes
LatticeConstant	1.0 Ang
%block LatticeVectors
    -6.012814379972 3.4715 0.0
    -6.012814379972 -3.4715 0.0
    0.0 0.0 12.999999999951
%endblock LatticeVectors
AtomicCoordinatesFormat	Ang
%block AtomicCoordinatesAndAtomicSpecies
    -4.008542919580443 0.0 6.499999996078847 1
    -8.017085839160973 0.0 6.5000000038721515 1
    -8.08994329709018 -2.2722690539771566 4.891332071253034 2
    -2.0771289230778693 -1.19923093570046 8.108667928697965 2
    -6.012814385330353 1.073038117929565 4.891332071253034 2
    -6.012814373411149 -1.0730381179295643 8.108667928697965 2
    -9.948499836264883 1.1992309360475915 4.891332071253034 2
    -3.9356854622525708 2.2722690536300245 8.108667928697965 2
%endblock AtomicCoordinatesAndAtomicSpecies
%block DM.InitSpin
    1 3.00000000000000 0.00000000000000 0.00000000000000
    2 3.00000000000000 0.00000000000000 0.00000000000000
%endblock DM.InitSpin
DM.UseSaveDM	True
#KPoint grid
%block kgrid_Monkhorst_Pack
     7       0       0  0.0
     0       7       0  0.0
     0       0       1  0.0
%endblock kgrid_Monkhorst_Pack
************************** End of input data file *****************************

reinit: -----------------------------------------------------------------------
reinit: System Name: siesta
reinit: -----------------------------------------------------------------------
reinit: System Label: siesta
reinit: -----------------------------------------------------------------------

NOTE on units for spin output: 
{S} is the spin magnetic moment, in units of the Bohr magneton,
assuming a g-factor for the electron spin of exactly 2.
The spin magnetic moment is then numerically equal to the charge inbalance,
in units of electrons, between the spin-up and -down channels.


initatom: Reading input for the pseudopotentials and atomic orbitals ----------
Species number:   1 Atomic number:   24 Label: Cr.1
Species number:   2 Atomic number:   53 Label: I.2

Ground state valence configuration (from tables):   4s01  4p00  3d05  4f00
Ground state valence configuration (from tables):   5s02  5p05  5d00  4f00

---- Processing specs for species: Cr.1
Reading pseudopotential information in PSML from:
  Cr.1.psml
PSML file version: 1.1
Using libxc ids:  116 133
GGA--PBEsol XC_GGA_X_PBE_SOL--XC_GGA_C_PBE_SOL ps
PSML uuid: 87329f20-539e-11e8-7421-43b3fe7d50f6
Semicore shell(s) with  8 electrons included in the valence for Cr.1

---- Processing specs for species: I.2
Reading pseudopotential information in PSML from:
  I.2.psml
PSML file version: 1.1
Using libxc ids:  116 133
GGA--PBEsol XC_GGA_X_PBE_SOL--XC_GGA_C_PBE_SOL ps
PSML uuid: 702ec960-539f-11e8-6aea-0e78fee15b65
resizes: Read basis size for species Cr.1 = dzp                 
resizes: Read basis size for species I.2 = dzp                 

---- Pseudopotential check for Cr

Pseudopotential generated from a fully relativistic atomic calculation
There are spin-orbit semi-local pseudopotentials available

Pseudized shells:
3s( 2.00) rc: 1.31
3p( 6.00) rc: 1.31
3d( 5.00) rc: 1.72
Valence configuration for ps generation: 3s:3p:3d:4s: Total charge:  14.000000
Semicore shell(s): 3s 3p
Fallback to non-perturbative polarization scheme for Cr.1
Please see the manual if this is not desired in principle

---- Pseudopotential check for I 

Pseudopotential generated from a fully relativistic atomic calculation
There are spin-orbit semi-local pseudopotentials available

Pseudized shells:
5s( 2.00) rc: 2.02
5p( 5.00) rc: 2.17
5d( 0.00) rc: 2.28
Valence configuration for ps generation: 5s:5p: Total charge:   7.000000
For Cr.1, standard SIESTA heuristics set lmxkb to 3
 (one more than the basis l, including polarization orbitals).
Use PS.lmax or PS.KBprojectors blocks to override.
For I.2, standard SIESTA heuristics set lmxkb to 3
 (one more than the basis l, including polarization orbitals).
Use PS.lmax or PS.KBprojectors blocks to override.
Cr.1 pseudopotential only contains V_ls up to l=2 -- lmxkb reset.
I.2 pseudopotential only contains V_ls up to l=2 -- lmxkb reset.

<basis_specs>
===============================================================================
Cr.1                 Z=  24    Mass=  51.996        Charge= 0.17977+309
Lmxo=2 Lmxkb= 2    BasisType=split      Semic=T
L=0  Nsemic=1  Cnfigmx=4
          i=1  nzeta=1  polorb=0  (3s)  (semicore shell)
            splnorm:   0.15000    
               vcte:    40.000    
               rinn:  -0.90000    
               qcoe:    0.0000    
               qyuk:    0.0000    
               qwid:   0.10000E-01
                rcs:    0.0000    
            lambdas:    1.0000    
          i=2  nzeta=2  polorb=0  (4s)  (to be polarized non-perturbatively)
            splnorm:   0.15000    
               vcte:    40.000    
               rinn:  -0.90000    
               qcoe:    0.0000    
               qyuk:    0.0000    
               qwid:   0.10000E-01
                rcs:    0.0000      0.0000    
            lambdas:    1.0000      1.0000    
L=1  Nsemic=1  Cnfigmx=4
          i=1  nzeta=1  polorb=0  (3p)  (semicore shell)
            splnorm:   0.15000    
               vcte:    40.000    
               rinn:  -0.90000    
               qcoe:    0.0000    
               qyuk:    0.0000    
               qwid:   0.10000E-01
                rcs:    0.0000    
            lambdas:    1.0000    
          i=2  nzeta=1  polorb=0  (4p)  (non-perturbative polarization shell)
            splnorm:   0.15000    
               vcte:    40.000    
               rinn:  -0.90000    
               qcoe:    0.0000    
               qyuk:    0.0000    
               qwid:    0.0000    
                rcs:    0.0000    
            lambdas:    1.0000    
L=2  Nsemic=0  Cnfigmx=3
          i=1  nzeta=2  polorb=0  (3d)
            splnorm:   0.15000    
               vcte:    40.000    
               rinn:  -0.90000    
               qcoe:    0.0000    
               qyuk:    0.0000    
               qwid:   0.10000E-01
                rcs:    0.0000      0.0000    
            lambdas:    1.0000      1.0000    
-------------------------------------------------------------------------------
L=0  Nkbl=2  erefs: 0.17977+309 0.17977+309
L=1  Nkbl=2  erefs: 0.17977+309 0.17977+309
L=2  Nkbl=1  erefs: 0.17977+309
===============================================================================
</basis_specs>

Using PAO.SplitTailNorm
atom: Called for Cr.1                  (Z =  24)
Maximum radius (at nrval) set to   50.00000 8518

read_vps: Pseudopotential generation method:
read_vps: ONCVPSP-3.Hamann's oncvpsp                        
Valence charge in pseudo generation:   14.00000

read_vps: Pseudopotential includes a core correction:
read_vps: Pseudo-core for xc-correction

xc_check: Exchange-correlation functional:
xc_check: GGA PBEsol
Got Vlocal (oncv-fit) from psml data
Choosing vlocal chloc cutoff:  5.269492
qtot up to nchloc:   14.00002693
atom: Maximum radius for chlocal:    5.26949
atom: Maximum radius for r*vlocal+2*Zval:    5.26949
Reading KB projs from Cr.1 psml data
Using lj projectors in PSML file

PSML: Kleinman-Bylander projectors: 
   l= 0   rc=  1.322197   Ekb= -2.482216
   l= 0   rc=  1.322197   Ekb= 12.666627
j- l= 1   rc=  1.322197   Ekb= -1.823073
j+ l= 1   rc=  1.322197   Ekb= -1.646233
j- l= 1   rc=  1.322197   Ekb=  2.322261
j+ l= 1   rc=  1.322197   Ekb=  2.432768
j- l= 2   rc=  1.738625   Ekb=-12.575110
j+ l= 2   rc=  1.738625   Ekb=-12.542804
j- l= 2   rc=  1.740375   Ekb= -3.497423
j+ l= 2   rc=  1.740375   Ekb= -3.479354

PSML: Total number of  Kleinman-Bylander projectors:  34
atom: -------------------------------------------------------------------------

atom: SANKEY-TYPE ORBITALS:
atom: Selected multiple-zeta basis: split     

SPLIT: Orbitals with angular momentum L= 0

SPLIT: Basis orbitals for state 3s

SPLIT: PAO cut-off radius determined from an
SPLIT: energy shift=  0.007350 Ry
Split based on tail norm

   izeta = 1
                 lambda =    1.000000
                     rc =    2.683469
                 energy =   -5.411148
                kinetic =    2.652677
    potential(screened) =   -8.063825
       potential(ionic) =  -29.745500

SPLIT: Basis orbitals for state 4s

SPLIT: PAO cut-off radius determined from an
SPLIT: energy shift=  0.007350 Ry
Split based on tail norm

   izeta = 1
                 lambda =    1.000000
                     rc =    7.764350
                 energy =   -0.307244
                kinetic =    0.766782
    potential(screened) =   -1.074026
       potential(ionic) =  -10.678724

   izeta = 2
                 rmatch =    5.674993
              splitnorm =    0.150000
                 energy =   -0.197844
                kinetic =    1.364934
    potential(screened) =   -1.562778
       potential(ionic) =  -13.071180

SPLIT: Orbitals with angular momentum L= 1

SPLIT: Basis orbitals for state 3p

SPLIT: PAO cut-off radius determined from an
SPLIT: energy shift=  0.007350 Ry
Split based on tail norm

   izeta = 1
                 lambda =    1.000000
                     rc =    3.014754
                 energy =   -3.321872
                kinetic =    6.224880
    potential(screened) =   -9.546752
       potential(ionic) =  -30.608088

SPLIT: Basis orbitals for state 4p
SPLIT: Non-perturbative polarization orbs for state 4s
SPLIT: rc(1st zeta) (re)set to: 7.7643 (expansion factor: 1.0000)
Split based on tail norm

   izeta = 1
                 lambda =    1.000000
                     rc =    7.764350
                 energy =   -0.018020
                kinetic =    0.779789
    potential(screened) =   -0.797809
       potential(ionic) =   -8.688491

SPLIT: Orbitals with angular momentum L= 2

SPLIT: Basis orbitals for state 3d

SPLIT: PAO cut-off radius determined from an
SPLIT: energy shift=  0.007350 Ry
Split based on tail norm

   izeta = 1
                 lambda =    1.000000
                     rc =    5.490449
                 energy =   -0.206423
                kinetic =    7.636930
    potential(screened) =   -7.843353
       potential(ionic) =  -25.593008

   izeta = 2
                 rmatch =    3.479749
              splitnorm =    0.150000
                 energy =   -0.120380
                kinetic =    9.356010
    potential(screened) =   -9.476390
       potential(ionic) =  -28.851041
atom: Total number of Sankey-type orbitals: 19

atm_pop: Valence configuration (for local Pseudopot. screening):
 3s( 2.00) 4s( 1.00)                                                  
 3p( 6.00) 4p( 0.00)                                                  
 3d( 5.00)                                                            
Vna: chval, zval:   14.00000  14.00000

Vna:  Cut-off radius for the neutral-atom potential:   7.764350
comcore: Pseudo-core radius Rcore=  1.510182

atom: _________________________________________________________________________

<basis_specs>
===============================================================================
I.2                  Z=  53    Mass=  126.90        Charge= 0.17977+309
Lmxo=2 Lmxkb= 2    BasisType=split      Semic=F
L=0  Nsemic=0  Cnfigmx=5
          i=1  nzeta=2  polorb=0  (5s)
            splnorm:   0.15000    
               vcte:    40.000    
               rinn:  -0.90000    
               qcoe:    0.0000    
               qyuk:    0.0000    
               qwid:   0.10000E-01
                rcs:    0.0000      0.0000    
            lambdas:    1.0000      1.0000    
L=1  Nsemic=0  Cnfigmx=5
          i=1  nzeta=2  polorb=1  (5p)  (to be polarized perturbatively)
            splnorm:   0.15000    
               vcte:    40.000    
               rinn:  -0.90000    
               qcoe:    0.0000    
               qyuk:    0.0000    
               qwid:   0.10000E-01
                rcs:    0.0000      0.0000    
            lambdas:    1.0000      1.0000    
L=2  Nsemic=0  Cnfigmx=5
          i=1  nzeta=0  polorb=0  (5d)  (perturbative polarization orbital) (from 5p)
-------------------------------------------------------------------------------
L=0  Nkbl=1  erefs: 0.17977+309
L=1  Nkbl=1  erefs: 0.17977+309
L=2  Nkbl=1  erefs: 0.17977+309
===============================================================================
</basis_specs>

Using PAO.SplitTailNorm
atom: Called for I.2                   (Z =  53)
Maximum radius (at nrval) set to   50.00000 8518

read_vps: Pseudopotential generation method:
read_vps: ONCVPSP-3.Hamann's oncvpsp                        
Valence charge in pseudo generation:    7.00000

read_vps: Pseudopotential includes a core correction:
read_vps: Pseudo-core for xc-correction

xc_check: Exchange-correlation functional:
xc_check: GGA PBEsol
Got Vlocal (oncv-fit) from psml data
Choosing vlocal chloc cutoff:  6.056791
qtot up to nchloc:    6.99744435
atom: Maximum radius for chlocal:    6.05679
atom: Maximum radius for r*vlocal+2*Zval:    6.05679
Reading KB projs from I.2 psml data
Using lj projectors in PSML file

PSML: Kleinman-Bylander projectors: 
   l= 0   rc=  2.046139   Ekb=  1.862833
   l= 0   rc=  2.046139   Ekb= 12.023689
j- l= 1   rc=  2.197432   Ekb=  1.703450
j+ l= 1   rc=  2.197432   Ekb=  1.409281
j- l= 1   rc=  2.197432   Ekb=  8.254269
j+ l= 1   rc=  2.197432   Ekb=  8.064753
j- l= 2   rc=  2.305973   Ekb=  1.410588
j+ l= 2   rc=  2.305973   Ekb=  1.472476
j- l= 2   rc=  2.305973   Ekb=  7.612145
j+ l= 2   rc=  2.305973   Ekb=  8.925876

PSML: Total number of  Kleinman-Bylander projectors:  34
atom: -------------------------------------------------------------------------

atom: SANKEY-TYPE ORBITALS:
atom: Selected multiple-zeta basis: split     

SPLIT: Orbitals with angular momentum L= 0

SPLIT: Basis orbitals for state 5s

SPLIT: PAO cut-off radius determined from an
SPLIT: energy shift=  0.007350 Ry
Split based on tail norm

   izeta = 1
                 lambda =    1.000000
                     rc =    4.897820
                 energy =   -1.272163
                kinetic =    0.778652
    potential(screened) =   -2.050815
       potential(ionic) =   -6.928346

   izeta = 2
                 rmatch =    3.424357
              splitnorm =    0.150000
                 energy =   -0.758621
                kinetic =    1.762973
    potential(screened) =   -2.521594
       potential(ionic) =   -7.612880

SPLIT: Orbitals with angular momentum L= 1

SPLIT: Basis orbitals for state 5p

SPLIT: PAO cut-off radius determined from an
SPLIT: energy shift=  0.007350 Ry
Split based on tail norm

   izeta = 1
                 lambda =    1.000000
                     rc =    6.154640
                 energy =   -0.513250
                kinetic =    1.006724
    potential(screened) =   -1.519975
       potential(ionic) =   -6.022602

   izeta = 2
                 rmatch =    4.355924
              splitnorm =    0.150000
                 energy =   -0.367251
                kinetic =    1.501179
    potential(screened) =   -1.868430
       potential(ionic) =   -6.700834

POLgen: Perturbative polarization orbital with L=  2

POLgen: Polarization orbital for state 5p
Split based on tail norm

   izeta = 1
                     rc =    6.154640
                 energy =    0.434023
                kinetic =    1.527297
    potential(screened) =   -1.093274
       potential(ionic) =   -5.290223
atom: Total number of Sankey-type orbitals: 13

atm_pop: Valence configuration (for local Pseudopot. screening):
 5s( 2.00)                                                            
 5p( 5.00)                                                            
 5d( 0.00)                                                            
Vna: chval, zval:    7.00000   7.00000

Vna:  Cut-off radius for the neutral-atom potential:   6.154640
comcore: Pseudo-core radius Rcore=  3.846769

atom: _________________________________________________________________________

prinput: Basis input 

PAO.BasisType split     

%block ChemicalSpeciesLabel
    1   24 Cr.1                    # Species index, atomic number, species label
    2   53 I.2                     # Species index, atomic number, species label
%endblock ChemicalSpeciesLabel

%block PAO.Basis                 # Define Basis set
# WARNING: This information might be incomplete!
Cr.1                  5                    # Species label, number of l-shells
 n=3   0   1                         # n, l, Nzeta 
   2.683   
   1.000   
 n=4   0   2                         # n, l, Nzeta 
   7.764      5.675   
   1.000      1.000   
 n=3   1   1                         # n, l, Nzeta 
   3.015   
   1.000   
 n=4   1   1                         # n, l, Nzeta 
   7.764   
   1.000   
 n=3   2   2                         # n, l, Nzeta 
   5.490      3.480   
   1.000      1.000   
I.2                   2                    # Species label, number of l-shells
 n=5   0   2                         # n, l, Nzeta 
   4.898      3.424   
   1.000      1.000   
 n=5   1   2 P   1                   # n, l, Nzeta, Polarization, NzetaPol
   6.155      4.356   
   1.000      1.000   
%endblock PAO.Basis

prinput: ----------------------------------------------------------------------

Dumping basis to NetCDF file Cr.1.ion.nc
Dumping basis to NetCDF file I.2.ion.nc
coor:   Atomic-coordinates input format  =     Cartesian coordinates
coor:                                          (in Angstroms)

siesta: Atomic coordinates (Bohr) and species
siesta:     -7.57505   0.00000  12.28322  1        1
siesta:    -15.15010   0.00000  12.28322  1        2
siesta:    -15.28778  -4.29397   9.24328  2        3
siesta:     -3.92520  -2.26622  15.32316  2        4
siesta:    -11.36257   2.02775   9.24328  2        5
siesta:    -11.36257  -2.02775  15.32316  2        6
siesta:    -18.79994   2.26622   9.24328  2        7
siesta:     -7.43737   4.29397  15.32316  2        8

siesta: System type = slab      

initatomlists: Number of atoms, orbitals, and projectors:      8   116   272

siesta: ******************** Simulation parameters ****************************
siesta:
siesta: The following are some of the parameters of the simulation.
siesta: A complete list of the parameters used, including default values,
siesta: can be found in file out.fdf
siesta:
redata: Spin configuration                          = spin-orbit+offsite
redata: Number of spin components                   = 8
redata: Time-Reversal Symmetry                      = F
redata: Spin spiral                                 = F
redata: Long output                                 =   F
redata: Number of Atomic Species                    =        2
redata: Charge density info will appear in .RHO file
redata: Write Mulliken Pop.                         = Atomic and Orbital charges
redata: Matel table size (NRTAB)                    =     1024
redata: Mesh Cutoff                                 =   600.0000 Ry
redata: Net charge of the system                    =     0.0000 |e|
redata: Min. number of SCF Iter                     =        0
redata: Max. number of SCF Iter                     =     5000
redata: SCF mix quantity                            = Hamiltonian
redata: Mix DM or H after convergence               =   F
redata: Recompute H after scf cycle                 =   F
redata: Mix DM in first SCF step                    =   T
redata: Write Pulay info on disk                    =   F
redata: New DM Occupancy tolerance                  = 0.000000000001
redata: No kicks to SCF
redata: DM Mixing Weight for Kicks                  =     0.5000
redata: Require Harris convergence for SCF          =   F
redata: Harris energy tolerance for SCF             =     0.000100 eV
redata: Require DM convergence for SCF              =   T
redata: DM tolerance for SCF                        =     0.000300
redata: Require EDM convergence for SCF             =   F
redata: EDM tolerance for SCF                       =     0.100000 eV
redata: Require H convergence for SCF               =   T
redata: Hamiltonian tolerance for SCF               =     0.010000 eV
redata: Require (free) Energy convergence for SCF   =   F
redata: (free) Energy tolerance for SCF             =     0.000100 eV
redata: Using DFT-D3 dispersion                     =   F
redata: Using Saved Data (generic)                  =   F
redata: Use continuation files for DM               =   T
redata: Neglect nonoverlap interactions             =   F
redata: Method of Calculation                       = Diagonalization
redata: Electronic Temperature                      =   100.0000 K
redata: Fix the spin of the system                  =   F
redata: Split SR and SO contributions               =   F
redata: Spin-Orbit strength                         =     1.0000
redata: Max. number of TDED Iter                    =        1
redata: Number of TDED substeps                     =        3
redata: Dynamics option                             = Single-point calculation
mix.SCF: Pulay mixing                            = Pulay
mix.SCF:    Variant                              = stable
mix.SCF:    History steps                        = 16
mix.SCF:    Linear mixing weight                 =     0.200000
mix.SCF:    Mixing weight                        =     0.200000
mix.SCF:    SVD condition                        = 0.1000E-07
mix.SCF: Spin-component mixing                   sum
redata: Save all siesta data in one NC              =   T
redata: NC compression level                        =        0
redata: ***********************************************************************

%block SCF.Mixers
  Pulay
%endblock SCF.Mixers

%block SCF.Mixer.Pulay
  # Mixing method
  method pulay
  variant stable

  # Mixing options
  weight 0.2000
  weight.linear 0.2000
  history 16
%endblock SCF.Mixer.Pulay

DM_history_depth set to one: no extrapolation allowed by default for geometry relaxation
Size of DM history Fstack: 1
Total number of electrons:    70.000000
Total ionic charge:    70.000000

* ProcessorY, Blocksize:    4   7


* Orbital distribution balance (max,min):    11     7


Time-reversal symmetry not used.

siesta: k-grid: Number of k-points = 49
siesta: k-points from Monkhorst-Pack grid
siesta: k-cutoff (effective) =     6.500 Ang
siesta: k-point supercell and displacements
siesta: k-grid:     7     0     0      0.000
siesta: k-grid:     0     7     0      0.000
siesta: k-grid:     0     0     1      0.000

diag: Algorithm                                     = D&C
diag: Parallel over k                               =   T
diag: Use parallel 2D distribution                  =   T
diag: Parallel block-size                           = 7
diag: Parallel distribution                         =     4 x     4
diag: Used triangular part                          = Lower
diag: Absolute tolerance                            =  0.100E-15
diag: Orthogonalization factor                      =  0.100E-05
diag: Memory factor                                 =  1.0000

superc: Internal auxiliary supercell:     5 x     5 x     1  =      25
superc: Number of atoms, orbitals, and projectors:    200   2900   6800


ts: **************************************************************
ts: Save H and S matrices                           =    F
ts: Save DM and EDM matrices                        =    F
ts: Only save the overlap matrix S                  =    F
ts: **************************************************************

************************ Begin: TS CHECKS AND WARNINGS ************************
************************ End: TS CHECKS AND WARNINGS **************************


                     ====================================
                        Single-point calculation
                     ====================================

superc: Internal auxiliary supercell:     5 x     5 x     1  =      25
superc: Number of atoms, orbitals, and projectors:    200   2900   6800

outcell: Unit cell vectors (Ang):
       -6.012814    3.471500    0.000000
       -6.012814   -3.471500    0.000000
        0.000000    0.000000   13.000000

outcell: Cell vector modules (Ang)   :    6.943000    6.943000   13.000000
outcell: Cell angles (23,13,12) (deg):     90.0000     90.0000     60.0000
outcell: Cell volume (Ang**3)        :    542.7106
<dSpData1D:S at geom step 0
  <sparsity:sparsity for geom step 0
    nrows_g=116 nrows=11 sparsity=.3337 nnzs=4490, refcount: 9>
  <dData1D:(new from dSpData1D) n=4490, refcount: 1>
refcount: 1>
new_DM -- step:     1
Initializing Density Matrix...

Attempting to read DM from file... Failed...
DM filled with atomic data (user-defined):
<dSpData2D:DM initialized from atoms
  <sparsity:sparsity for geom step 0
    nrows_g=116 nrows=11 sparsity=.3337 nnzs=4490, refcount: 10>
  <dData2D:DM n=4490 m=8, refcount: 1>
refcount: 1>
     spin moment: {S} , |S| = {    0.00000    0.00000    6.00000 }     6.00000

InitMesh: MESH = 90 x 90 x 192 = 1555200
InitMesh: Mesh cutoff (required, used) =   600.000   602.862 Ry
New grid distribution [1]: sub = 2
New grid distribution [2]: sub = 2
New grid distribution [3]: sub = 2
Setting up quadratic distribution...

stepf: Fermi-Dirac step function

siesta: Program's energy decomposition (eV):
siesta: Ebs     =     -2009.675705
siesta: Eions   =      9899.289706
siesta: Ena     =      1642.626605
siesta: Ekin    =      2249.152163
siesta: Enl(+so)=        95.514903
siesta: Eso(nil)=         0.000000
siesta: Edftu   =         0.000000
siesta: DEna    =       249.120916
siesta: DUscf   =        70.269955
siesta: DUext   =         0.000000
siesta: Ex      =     -1194.751624
siesta: Ec      =      -112.618225
siesta: Exc     =     -1307.369849
siesta: EbV     =         0.000000
siesta: eta*DQ  =         0.000000
siesta: Emadel  =         0.000000
siesta: Emeta   =         0.000000
siesta: Emolmec =         0.000000
siesta: Ekinion =         0.000000
siesta: Eharris =     -6793.516978
siesta: Etot    =     -6899.975014
siesta: FreeEng =     -6899.975014

        iscf     Eharris(eV)        E_KS(eV)     FreeEng(eV)     dDmax    Ef(eV) dHmax(eV)
   scf:    1    -6793.516978    -6899.975014    -6899.975014  0.856616 -0.345985 37.612622
     spin moment: {S} , |S| = {   -0.00000   -0.00000    5.99514 }     5.99514
timer: Routine,Calls,Time,% = IterSCF        1       0.632   5.43
   scf:    2    -6935.209750    -6948.916241    -6948.916241  0.816463 -4.572767  6.566210
     spin moment: {S} , |S| = {    0.00000   -0.00000    6.03263 }     6.03263
   scf:    3    -6949.443968    -6951.135893    -6951.135893  0.061110 -3.920427  4.293134
     spin moment: {S} , |S| = {    0.00000   -0.00000    6.02528 }     6.02528
   scf:    4    -6945.205502    -6950.223628    -6950.223628  0.169479 -4.486805  6.486557
     spin moment: {S} , |S| = {    0.00000   -0.00000    6.05798 }     6.05798
   scf:    5    -6943.196149    -6947.126422    -6947.126422  0.029276 -4.569297 10.687989
     spin moment: {S} , |S| = {    0.00000    0.00000    6.06592 }     6.06592
   scf:    6    -6954.134435    -6951.667078    -6951.667078  0.043119 -4.492509  2.993091
     spin moment: {S} , |S| = {    0.00000   -0.00000    6.05936 }     6.05936
   scf:    7    -6952.144004    -6952.011045    -6952.011045  0.020158 -4.490392  0.128776
     spin moment: {S} , |S| = {    0.00000   -0.00000    6.05176 }     6.05176
   scf:    8    -6951.954365    -6951.983685    -6951.983685  0.004402 -4.458871  0.851244
     spin moment: {S} , |S| = {    0.00000   -0.00000    6.05062 }     6.05062
   scf:    9    -6952.010128    -6952.008174    -6952.008174  0.007154 -4.493628  0.368357
     spin moment: {S} , |S| = {    0.00000   -0.00000    6.05330 }     6.05330
   scf:   10    -6952.009029    -6952.013006    -6952.013006  0.002960 -4.509698  0.146494
     spin moment: {S} , |S| = {    0.00000   -0.00000    6.05483 }     6.05483
   scf:   11    -6952.009067    -6952.013907    -6952.013907  0.001749 -4.520533  0.009836
     spin moment: {S} , |S| = {    0.00000   -0.00000    6.05589 }     6.05589
   scf:   12    -6952.013398    -6952.013912    -6952.013912  0.000262 -4.521930  0.013824
     spin moment: {S} , |S| = {    0.00000   -0.00000    6.05620 }     6.05620
   scf:   13    -6952.013849    -6952.013915    -6952.013915  0.000229 -4.522318  0.008565
     spin moment: {S} , |S| = {    0.00000   -0.00000    6.05638 }     6.05638

SCF Convergence by DM+H criterion
max |DM_out - DM_in|         :     0.0002287499
max |H_out - H_in|      (eV) :     0.0085651602
SCF cycle converged after 13 iterations

Using DM_out to compute the final energy and forces

siesta: E_KS(eV) =            -6952.0139

siesta: E_KS - E_eggbox =     -6952.0139
     spin moment: {S} , |S| = {    0.00000   -0.00000    6.05638 }     6.05638

siesta: Atomic forces (eV/Ang):
----------------------------------------
   Tot   -0.000000    0.000000   -0.000000
----------------------------------------
   Max    0.596330
   Res    0.344335    sqrt( Sum f_i^2 / 3N )
----------------------------------------
   Max    0.596330    constrained

Stress tensor Voigt[x,y,z,yz,xz,xy] (kbar):       19.30       19.30       16.95       -0.00        0.00        0.00
(Free)E + p*V (eV/cell)    -6958.2866
Target enthalpy (eV/cell)    -6952.0139

moments: Magnetic moments from orbital angular momenta:

Species: Cr.1                

Atom    Orb         sqrt(<L>^2)      <(Lx,Ly,Lz)>
----------------------------------------------------------------------------------------------------
   1    1  3s         0.000    0.000  0.000  0.000
   1    2  4s         0.000    0.000  0.000  0.000
   1    3  4s         0.000    0.000  0.000  0.000
   1    4  3py        0.000    0.000  0.000  0.000
   1    5  3pz        0.000   -0.000 -0.000  0.000
   1    6  3px        0.000    0.000 -0.000  0.000
   1    7  4py        0.001   -0.000  0.000 -0.001
   1    8  4pz        0.000   -0.000 -0.000  0.000
   1    9  4px        0.001    0.000 -0.000 -0.001
   1   10  3dxy       0.039   -0.000 -0.007  0.039
   1   11  3dyz       0.019   -0.000 -0.007  0.018
   1   12  3dz2       0.000    0.000  0.000  0.000
   1   13  3dxz       0.019   -0.000  0.007  0.018
   1   14  3dx2-y2    0.039   -0.000  0.007  0.039
   1   15  3dxy       0.001    0.000 -0.001 -0.000
   1   16  3dyz       0.001    0.000 -0.001  0.001
   1   17  3dz2       0.000    0.000  0.000  0.000
   1   18  3dxz       0.001    0.000  0.001  0.001
   1   19  3dx2-y2    0.001    0.000  0.001 -0.000
----------------------------------------------------------------------------------------------------
   1      Total       0.112   -0.000 -0.000  0.112

   2   20  3s         0.000    0.000  0.000  0.000
   2   21  4s         0.000    0.000  0.000  0.000
   2   22  4s         0.000    0.000  0.000  0.000
   2   23  3py        0.000    0.000  0.000  0.000
   2   24  3pz        0.000   -0.000 -0.000  0.000
   2   25  3px        0.000    0.000 -0.000  0.000
   2   26  4py        0.001   -0.000  0.000 -0.001
   2   27  4pz        0.000   -0.000 -0.000  0.000
   2   28  4px        0.001    0.000 -0.000 -0.001
   2   29  3dxy       0.039    0.000 -0.007  0.039
   2   30  3dyz       0.019   -0.000 -0.007  0.018
   2   31  3dz2       0.000   -0.000  0.000  0.000
   2   32  3dxz       0.019    0.000  0.007  0.018
   2   33  3dx2-y2    0.039   -0.000  0.007  0.039
   2   34  3dxy       0.001   -0.000 -0.001 -0.000
   2   35  3dyz       0.001    0.000 -0.001  0.001
   2   36  3dz2       0.000    0.000  0.000  0.000
   2   37  3dxz       0.001   -0.000  0.001  0.001
   2   38  3dx2-y2    0.001    0.000  0.001 -0.000
----------------------------------------------------------------------------------------------------
   2      Total       0.112    0.000 -0.000  0.112


Species: I.2                 

Atom    Orb         sqrt(<L>^2)      <(Lx,Ly,Lz)>
----------------------------------------------------------------------------------------------------
   3   39  5s         0.000    0.000  0.000  0.000
   3   40  5s         0.000    0.000  0.000  0.000
   3   41  5py        0.026    0.003  0.000 -0.026
   3   42  5pz        0.004    0.003 -0.002  0.000
   3   43  5px        0.026    0.000 -0.002 -0.026
   3   44  5py        0.000    0.000  0.000 -0.000
   3   45  5pz        0.000    0.000 -0.000  0.000
   3   46  5px        0.000    0.000 -0.000 -0.000
   3   47  5Pdxy      0.000   -0.000  0.000 -0.000
   3   48  5Pdyz      0.000    0.000  0.000 -0.000
   3   49  5Pdz2      0.000    0.000 -0.000  0.000
   3   50  5Pdxz      0.000   -0.000 -0.000 -0.000
   3   51  5Pdx2-y    0.000   -0.000  0.000 -0.000
----------------------------------------------------------------------------------------------------
   3      Total       0.053    0.007 -0.004 -0.053

   4   52  5s         0.000    0.000  0.000  0.000
   4   53  5s         0.000    0.000  0.000  0.000
   4   54  5py        0.026   -0.003  0.000 -0.026
   4   55  5pz        0.004   -0.003 -0.002  0.000
   4   56  5px        0.026    0.000 -0.002 -0.026
   4   57  5py        0.000   -0.000  0.000 -0.000
   4   58  5pz        0.000   -0.000 -0.000  0.000
   4   59  5px        0.000    0.000 -0.000 -0.000
   4   60  5Pdxy      0.000    0.000  0.000 -0.000
   4   61  5Pdyz      0.000   -0.000  0.000 -0.000
   4   62  5Pdz2      0.000   -0.000 -0.000  0.000
   4   63  5Pdxz      0.000    0.000 -0.000 -0.000
   4   64  5Pdx2-y    0.000    0.000  0.000 -0.000
----------------------------------------------------------------------------------------------------
   4      Total       0.053   -0.007 -0.004 -0.053

   5   65  5s         0.000    0.000  0.000  0.000
   5   66  5s         0.000    0.000  0.000  0.000
   5   67  5py        0.026   -0.000  0.000 -0.026
   5   68  5pz        0.004   -0.000  0.004  0.000
   5   69  5px        0.026    0.000  0.004 -0.026
   5   70  5py        0.000    0.000  0.000 -0.000
   5   71  5pz        0.000    0.000  0.000  0.000
   5   72  5px        0.000    0.000  0.000 -0.000
   5   73  5Pdxy      0.000    0.000 -0.000 -0.000
   5   74  5Pdyz      0.000   -0.000 -0.000 -0.000
   5   75  5Pdz2      0.000    0.000  0.000  0.000
   5   76  5Pdxz      0.000    0.000  0.000 -0.000
   5   77  5Pdx2-y    0.000   -0.000 -0.000 -0.000
----------------------------------------------------------------------------------------------------
   5      Total       0.053   -0.000  0.008 -0.053

   6   78  5s         0.000    0.000  0.000  0.000
   6   79  5s         0.000    0.000  0.000  0.000
   6   80  5py        0.026    0.000  0.000 -0.026
   6   81  5pz        0.004    0.000  0.004  0.000
   6   82  5px        0.026    0.000  0.004 -0.026
   6   83  5py        0.000    0.000  0.000 -0.000
   6   84  5pz        0.000    0.000  0.000  0.000
   6   85  5px        0.000    0.000  0.000 -0.000
   6   86  5Pdxy      0.000   -0.000 -0.000 -0.000
   6   87  5Pdyz      0.000    0.000 -0.000 -0.000
   6   88  5Pdz2      0.000   -0.000  0.000  0.000
   6   89  5Pdxz      0.000   -0.000  0.000 -0.000
   6   90  5Pdx2-y    0.000    0.000 -0.000 -0.000
----------------------------------------------------------------------------------------------------
   6      Total       0.053    0.000  0.008 -0.053

   7   91  5s         0.000    0.000  0.000  0.000
   7   92  5s         0.000    0.000  0.000  0.000
   7   93  5py        0.026   -0.003  0.000 -0.026
   7   94  5pz        0.004   -0.003 -0.002  0.000
   7   95  5px        0.026    0.000 -0.002 -0.026
   7   96  5py        0.000   -0.000  0.000 -0.000
   7   97  5pz        0.000   -0.000 -0.000  0.000
   7   98  5px        0.000    0.000 -0.000 -0.000
   7   99  5Pdxy      0.000    0.000  0.000 -0.000
   7  100  5Pdyz      0.000   -0.000  0.000 -0.000
   7  101  5Pdz2      0.000   -0.000 -0.000  0.000
   7  102  5Pdxz      0.000    0.000 -0.000 -0.000
   7  103  5Pdx2-y    0.000    0.000  0.000 -0.000
----------------------------------------------------------------------------------------------------
   7      Total       0.053   -0.007 -0.004 -0.053

   8  104  5s         0.000    0.000  0.000  0.000
   8  105  5s         0.000    0.000  0.000  0.000
   8  106  5py        0.026    0.003  0.000 -0.026
   8  107  5pz        0.004    0.003 -0.002  0.000
   8  108  5px        0.026    0.000 -0.002 -0.026
   8  109  5py        0.000    0.000  0.000 -0.000
   8  110  5pz        0.000    0.000 -0.000  0.000
   8  111  5px        0.000    0.000 -0.000 -0.000
   8  112  5Pdxy      0.000   -0.000  0.000 -0.000
   8  113  5Pdyz      0.000    0.000  0.000 -0.000
   8  114  5Pdz2      0.000    0.000 -0.000  0.000
   8  115  5Pdxz      0.000   -0.000 -0.000 -0.000
   8  116  5Pdx2-y    0.000   -0.000  0.000 -0.000
----------------------------------------------------------------------------------------------------
   8      Total       0.053    0.007 -0.004 -0.053

----------------------------------------------------------------------------------------------------
 Sum                  0.093   -0.000 -0.000 -0.093


mulliken: Atomic and Orbital Populations:

Species: Cr.1                

Atom      Orb        Charge      Spin       Svec
----------------------------------------------------------------
    1  1 3s         1.99300   0.00024     -0.000   0.000  -0.000
    1  2 4s         0.59197   0.03868      0.000   0.000   0.039
    1  3 4s         0.07599   0.03522     -0.000  -0.000   0.035
    1  4 3py        1.99940   0.00036      0.000  -0.000  -0.000
    1  5 3pz        1.99867   0.00038      0.000  -0.000  -0.000
    1  6 3px        1.99941   0.00036      0.000   0.000  -0.000
    1  7 4py        0.40703   0.04390      0.000   0.000   0.044
    1  8 4pz        0.43875   0.04363      0.000  -0.000   0.044
    1  9 4px        0.40703   0.04390     -0.000  -0.000   0.044
    1 10 3dxy       0.84573   0.57995      0.000  -0.011   0.580
    1 11 3dyz       0.80524   0.39313      0.000  -0.013   0.393
    1 12 3dz2       0.87285   0.74146     -0.000   0.000   0.741
    1 13 3dxz       0.80526   0.39316     -0.000   0.013   0.393
    1 14 3dx2-y2    0.84573   0.57994     -0.000   0.011   0.580
    1 15 3dxy       0.11487   0.14491     -0.000   0.000   0.145
    1 16 3dyz       0.06159   0.09834     -0.000   0.001   0.098
    1 17 3dz2       0.16448   0.18514     -0.000   0.000   0.185
    1 18 3dxz       0.06159   0.09835      0.000  -0.001   0.098
    1 19 3dx2-y2    0.11494   0.14497     -0.000  -0.000   0.145
    1     Total    14.60351   3.56265     -0.000  -0.000   3.563

    2  1 3s         1.99300   0.00024      0.000   0.000  -0.000
    2  2 4s         0.59197   0.03868      0.000   0.000   0.039
    2  3 4s         0.07599   0.03522     -0.000  -0.000   0.035
    2  4 3py        1.99940   0.00036      0.000  -0.000  -0.000
    2  5 3pz        1.99867   0.00038      0.000  -0.000  -0.000
    2  6 3px        1.99941   0.00036      0.000   0.000  -0.000
    2  7 4py        0.40703   0.04390      0.000   0.000   0.044
    2  8 4pz        0.43875   0.04363     -0.000  -0.000   0.044
    2  9 4px        0.40703   0.04390     -0.000  -0.000   0.044
    2 10 3dxy       0.84573   0.57995      0.000  -0.011   0.580
    2 11 3dyz       0.80524   0.39313     -0.000  -0.013   0.393
    2 12 3dz2       0.87285   0.74146     -0.000   0.000   0.741
    2 13 3dxz       0.80526   0.39316      0.000   0.013   0.393
    2 14 3dx2-y2    0.84573   0.57994     -0.000   0.011   0.580
    2 15 3dxy       0.11487   0.14491      0.000   0.000   0.145
    2 16 3dyz       0.06159   0.09834      0.000   0.001   0.098
    2 17 3dz2       0.16448   0.18514      0.000   0.000   0.185
    2 18 3dxz       0.06159   0.09835     -0.000  -0.001   0.098
    2 19 3dx2-y2    0.11494   0.14497     -0.000  -0.000   0.145
    2     Total    14.60351   3.56265      0.000  -0.000   3.563

----------------------------------------------------------------
Total              29.20702   7.12529      0.000  -0.000   7.125


Species: I.2                 

Atom      Orb        Charge      Spin       Svec
----------------------------------------------------------------
    3  1 5s         1.70026   0.00651      0.000  -0.000  -0.007
    3  2 5s         0.11174   0.00203      0.000  -0.000   0.002
    3  3 5py        1.39963   0.09712     -0.000   0.008  -0.097
    3  4 5pz        1.69255   0.06135      0.017  -0.010  -0.058
    3  5 5px        1.64756   0.04024     -0.013   0.000  -0.038
    3  6 5py        0.13201   0.00891      0.000  -0.001   0.009
    3  7 5pz       -0.00908   0.00368     -0.003   0.002  -0.001
    3  8 5px        0.04378   0.00245      0.002  -0.000   0.001
    3  9 5Pdxy      0.01938   0.00222     -0.000  -0.000   0.002
    3 10 5Pdyz      0.01351   0.00163      0.000   0.000   0.002
    3 11 5Pdz2      0.01611   0.00253      0.000  -0.000   0.003
    3 12 5Pdxz      0.01264   0.00125      0.000  -0.000   0.001
    3 13 5Pdx2-y2   0.01874   0.00235      0.000   0.000   0.002
    3     Total     6.79883   0.17817      0.002  -0.001  -0.178

    4  1 5s         1.70026   0.00651     -0.000  -0.000  -0.007
    4  2 5s         0.11174   0.00203     -0.000  -0.000   0.002
    4  3 5py        1.39963   0.09712      0.000   0.008  -0.097
    4  4 5pz        1.69255   0.06135     -0.017  -0.010  -0.058
    4  5 5px        1.64756   0.04024      0.013   0.000  -0.038
    4  6 5py        0.13201   0.00891     -0.000  -0.001   0.009
    4  7 5pz       -0.00908   0.00368      0.003   0.002  -0.001
    4  8 5px        0.04378   0.00245     -0.002  -0.000   0.001
    4  9 5Pdxy      0.01938   0.00222      0.000  -0.000   0.002
    4 10 5Pdyz      0.01351   0.00163     -0.000   0.000   0.002
    4 11 5Pdz2      0.01611   0.00253     -0.000  -0.000   0.003
    4 12 5Pdxz      0.01264   0.00125     -0.000  -0.000   0.001
    4 13 5Pdx2-y2   0.01874   0.00235     -0.000   0.000   0.002
    4     Total     6.79883   0.17817     -0.002  -0.001  -0.178

    5  1 5s         1.70026   0.00651      0.000   0.000  -0.007
    5  2 5s         0.11174   0.00203     -0.000   0.000   0.002
    5  3 5py        1.77154   0.01762     -0.000  -0.015  -0.009
    5  4 5pz        1.69255   0.06135      0.000   0.019  -0.058
    5  5 5px        1.27566   0.12624     -0.000  -0.000  -0.126
    5  6 5py       -0.00034   0.00385      0.000   0.003  -0.003
    5  7 5pz       -0.00908   0.00368      0.000  -0.004  -0.001
    5  8 5px        0.17612   0.01271     -0.000   0.000   0.013
    5  9 5Pdxy      0.01843   0.00241     -0.000   0.000   0.002
    5 10 5Pdyz      0.01221   0.00107     -0.000   0.000   0.001
    5 11 5Pdz2      0.01611   0.00253     -0.000   0.000   0.003
    5 12 5Pdxz      0.01394   0.00182     -0.000  -0.000   0.002
    5 13 5Pdx2-y2   0.01969   0.00216      0.000  -0.000   0.002
    5     Total     6.79883   0.17817     -0.000   0.003  -0.178

    6  1 5s         1.70026   0.00651     -0.000   0.000  -0.007
    6  2 5s         0.11174   0.00203      0.000   0.000   0.002
    6  3 5py        1.77154   0.01762      0.000  -0.015  -0.009
    6  4 5pz        1.69255   0.06135     -0.000   0.019  -0.058
    6  5 5px        1.27566   0.12624      0.000  -0.000  -0.126
    6  6 5py       -0.00034   0.00385     -0.000   0.003  -0.003
    6  7 5pz       -0.00908   0.00368      0.000  -0.004  -0.001
    6  8 5px        0.17612   0.01271     -0.000   0.000   0.013
    6  9 5Pdxy      0.01843   0.00241     -0.000   0.000   0.002
    6 10 5Pdyz      0.01221   0.00107      0.000   0.000   0.001
    6 11 5Pdz2      0.01611   0.00253     -0.000   0.000   0.003
    6 12 5Pdxz      0.01394   0.00182      0.000  -0.000   0.002
    6 13 5Pdx2-y2   0.01969   0.00216     -0.000  -0.000   0.002
    6     Total     6.79883   0.17817      0.000   0.003  -0.178

    7  1 5s         1.70026   0.00651     -0.000  -0.000  -0.007
    7  2 5s         0.11174   0.00203     -0.000  -0.000   0.002
    7  3 5py        1.39963   0.09712      0.000   0.008  -0.097
    7  4 5pz        1.69255   0.06135     -0.017  -0.010  -0.058
    7  5 5px        1.64756   0.04024      0.013   0.000  -0.038
    7  6 5py        0.13201   0.00891     -0.000  -0.001   0.009
    7  7 5pz       -0.00908   0.00368      0.003   0.002  -0.001
    7  8 5px        0.04378   0.00245     -0.002  -0.000   0.001
    7  9 5Pdxy      0.01938   0.00222      0.000  -0.000   0.002
    7 10 5Pdyz      0.01351   0.00163     -0.000   0.000   0.002
    7 11 5Pdz2      0.01611   0.00253     -0.000  -0.000   0.003
    7 12 5Pdxz      0.01264   0.00125     -0.000  -0.000   0.001
    7 13 5Pdx2-y2   0.01874   0.00235     -0.000   0.000   0.002
    7     Total     6.79883   0.17817     -0.002  -0.001  -0.178

    8  1 5s         1.70026   0.00651      0.000  -0.000  -0.007
    8  2 5s         0.11174   0.00203      0.000  -0.000   0.002
    8  3 5py        1.39963   0.09712     -0.000   0.008  -0.097
    8  4 5pz        1.69255   0.06135      0.017  -0.010  -0.058
    8  5 5px        1.64756   0.04024     -0.013   0.000  -0.038
    8  6 5py        0.13201   0.00891      0.000  -0.001   0.009
    8  7 5pz       -0.00908   0.00368     -0.003   0.002  -0.001
    8  8 5px        0.04378   0.00245      0.002  -0.000   0.001
    8  9 5Pdxy      0.01938   0.00222     -0.000  -0.000   0.002
    8 10 5Pdyz      0.01351   0.00163      0.000   0.000   0.002
    8 11 5Pdz2      0.01611   0.00253      0.000  -0.000   0.003
    8 12 5Pdxz      0.01264   0.00125      0.000  -0.000   0.001
    8 13 5Pdx2-y2   0.01874   0.00235      0.000   0.000   0.002
    8     Total     6.79883   0.17817      0.002  -0.001  -0.178

----------------------------------------------------------------
Total              70.00000   6.05638      0.000  -0.000   6.056


siesta: Program's energy decomposition (eV):
siesta: Ebs     =     -1367.350197
siesta: Eions   =      9899.289706
siesta: Ena     =      1642.626605
siesta: Ekin    =      2624.353347
siesta: Enl(+so)=       -46.693399
siesta: Eso(nil)=         0.000000
siesta: Edftu   =         0.000000
siesta: DEna    =        80.179848
siesta: DUscf   =         3.592539
siesta: DUext   =         0.000000
siesta: Ex      =     -1243.194715
siesta: Ec      =      -113.588434
siesta: Exc     =     -1356.783149
siesta: EbV     =         0.000000
siesta: eta*DQ  =         0.000000
siesta: Emadel  =         0.000000
siesta: Emeta   =         0.000000
siesta: Emolmec =         0.000000
siesta: Ekinion =         0.000000
siesta: Eharris =     -6952.013849
siesta: Etot    =     -6952.013915
siesta: FreeEng =     -6952.013915

siesta: Final energy (eV):
siesta:  Band Struct. =   -1367.350197
siesta:       Kinetic =    2624.353347
siesta:       Hartree =    6681.286422
siesta:         Edftu =       0.000000
siesta:      Eso(nil) =       0.000000
siesta:    Ext. field =       0.000000
siesta:         Exch. =   -1243.194715
siesta:         Corr. =    -113.588434
siesta:     Bulk bias =       0.000000
siesta:   Exch.-corr. =   -1356.783149
siesta:  Ion-electron =  -16108.937738
siesta:       Ion-ion =    1208.067204
siesta:       Ekinion =       0.000000
siesta: D3 dispersion =       0.000000
siesta:         Total =   -6952.013915
siesta:         Fermi =      -4.522318

siesta: Atomic forces (eV/Ang):
siesta:      1   -0.000005    0.000000   -0.000000
siesta:      2    0.000005   -0.000000    0.000000
siesta:      3   -0.298341    0.172257    0.596318
siesta:      4   -0.298340   -0.172257   -0.596318
siesta:      5    0.000000   -0.344447    0.596330
siesta:      6    0.000000    0.344447   -0.596330
siesta:      7    0.298340    0.172257    0.596318
siesta:      8    0.298340   -0.172257   -0.596318
siesta: ----------------------------------------
siesta:    Tot   -0.000000    0.000000   -0.000000

siesta: Stress tensor (static) (eV/Ang**3):
siesta:     0.012046   -0.000000    0.000000
siesta:     0.000000    0.012047   -0.000000
siesta:     0.000000   -0.000000    0.010582

siesta: Cell volume =        542.710613 Ang**3

siesta: Pressure (static):
siesta:                Solid            Molecule  Units
siesta:          -0.00012588         -0.00007254  Ry/Bohr**3
siesta:          -0.01155815         -0.00666077  eV/Ang**3
siesta:         -18.51819872        -10.67173319  kBar
(Free)E+ p_basis*V_orbitals  =       -6946.600910
(Free)Eharris+ p_basis*V_orbitals  =       -6946.600844
     spin moment: {S} , |S| = {    0.00000   -0.00000    6.05638 }     6.05638

siesta: Electric dipole (a.u.)  =    0.000000    0.000000    0.000000
siesta: Electric dipole (Debye) =    0.000000    0.000000    0.000000

Hirshfeld Atomic Populations:
Atom #     dQatom  Atom pop         S        Sx        Sy        Sz  Species
     1    0.29546  13.70454   3.18983  -0.00000  -0.00000   3.18983  Cr.1
     2    0.29546  13.70454   3.18983   0.00000  -0.00000   3.18983  Cr.1
     3   -0.09849   7.09849   0.05394   0.00221  -0.00127  -0.05388  I.2
     4   -0.09849   7.09849   0.05394  -0.00221  -0.00127  -0.05388  I.2
     5   -0.09849   7.09849   0.05394  -0.00000   0.00255  -0.05388  I.2
     6   -0.09849   7.09849   0.05394   0.00000   0.00255  -0.05388  I.2
     7   -0.09849   7.09849   0.05394  -0.00221  -0.00127  -0.05388  I.2
     8   -0.09849   7.09849   0.05394   0.00221  -0.00127  -0.05388  I.2
-------------------------------------------------------------------
 Total                        6.05638   0.00000  -0.00000   6.05638

Voronoi Atomic Populations:
Atom #     dQatom  Atom pop         S        Sx        Sy        Sz  Species
     1    0.24352  13.75648   3.36426  -0.00000  -0.00000   3.36426  Cr.1
     2    0.24352  13.75648   3.36426   0.00000  -0.00000   3.36426  Cr.1
     3   -0.08117   7.08117   0.11205   0.00221  -0.00127  -0.11202  I.2
     4   -0.08117   7.08117   0.11205  -0.00221  -0.00127  -0.11202  I.2
     5   -0.08118   7.08118   0.11205  -0.00000   0.00255  -0.11202  I.2
     6   -0.08118   7.08118   0.11205   0.00000   0.00255  -0.11202  I.2
     7   -0.08117   7.08117   0.11205  -0.00221  -0.00127  -0.11202  I.2
     8   -0.08117   7.08117   0.11205   0.00221  -0.00127  -0.11202  I.2
-------------------------------------------------------------------
 Total                        6.05638   0.00000  -0.00000   6.05638
 

cite: Please see "siesta.bib" for an exhaustive BiBTeX file.
cite: Please clearly indicate Siesta version in published work: 5.1-MaX-33-gaf41def5c-dirty
cite: This calculation has made use of the following articles
cite: which are encouraged to be cited in a published work.
        Primary SIESTA paper
          DOI: www.doi.org/10.1088/0953-8984/14/11/302
        Spin-orbit coupling (off-site approximation)
          DOI: www.doi.org/10.1088/0953-8984/24/8/086005


>> End of run:  11-SEP-2024  11:09:44
Job completed
